<?xml version="1.0" encoding="UTF-8"?>

<!-- generated on 2024-02-26 17:22:06 by Eclipse SUMO GUI Version 1.14.1
<configuration xmlns:xsi="http://www.w3.org/2001/XMLSchema-instance" xsi:noNamespaceSchemaLocation="http://sumo.dlr.de/xsd/sumoConfiguration.xsd">

    <input>
        <net-file value="testingSumo/test.net.xml"/>
        <route-files value="testingSumo/test.rou.xml"/>
        <additional-files value="testingSumo/test.xml"/>
    </input>

    <output>
        <tripinfo-output value="testTripInfo.xml"/>
    </output>

    <traci_server>
        <remote-port value="53893"/>
    </traci_server>

</configuration>
-->

<tripinfos xmlns:xsi="http://www.w3.org/2001/XMLSchema-instance" xsi:noNamespaceSchemaLocation="http://sumo.dlr.de/xsd/tripinfo_file.xsd">
</tripinfos>
