<?xml version="1.0" encoding="UTF-8"?>

<!-- generated on 2024-05-02 18:42:04 by Eclipse SUMO sumo Version 1.14.1
<configuration xmlns:xsi="http://www.w3.org/2001/XMLSchema-instance" xsi:noNamespaceSchemaLocation="http://sumo.dlr.de/xsd/sumoConfiguration.xsd">

    <input>
        <net-file value="singapore/sumo/singapore.net.xml"/>
        <route-files value="singapore/sumo/busFlows.rou.xml"/>
        <additional-files value="singapore/sumo/busstops.xml"/>
    </input>

    <output>
        <tripinfo-output value="tripinfo.xml"/>
    </output>

    <processing>
        <no-internal-links value="true"/>
    </processing>

    <traci_server>
        <remote-port value="62658"/>
    </traci_server>

</configuration>
-->

<tripinfos xmlns:xsi="http://www.w3.org/2001/XMLSchema-instance" xsi:noNamespaceSchemaLocation="http://sumo.dlr.de/xsd/tripinfo_file.xsd">
    <personinfo id="410459904.22.270" depart="270.00" type="DEFAULT_PEDTYPE">
        <walk depart="270.00" departPos="19.22" arrival="271.00" arrivalPos="20.22" duration="1.00" routeLength="1.00" timeLoss="0.28" maxSpeed="1.39"/>
        <ride waitingTime="41.00" vehicle="bus_22:0.0" depart="312.00" arrival="620.00" arrivalPos="26.18" duration="308.00" routeLength="1156.37" timeLoss="25.99"/>
    </personinfo>
    <personinfo id="410462103.22.520" depart="520.00" type="DEFAULT_PEDTYPE">
        <walk depart="520.00" departPos="51.46" arrival="521.00" arrivalPos="52.46" duration="1.00" routeLength="1.00" timeLoss="0.28" maxSpeed="1.39"/>
        <ride waitingTime="463.00" vehicle="bus_22:0.0" depart="984.00" arrival="1344.00" arrivalPos="176.36" duration="360.00" routeLength="1357.80" timeLoss="28.84"/>
    </personinfo>
    <personinfo id="410462103.22.1053" depart="1053.00" type="DEFAULT_PEDTYPE">
        <walk depart="1053.00" departPos="51.46" arrival="1054.00" arrivalPos="52.46" duration="1.00" routeLength="1.00" timeLoss="0.28" maxSpeed="1.39"/>
        <ride waitingTime="229.00" vehicle="bus_22:0.1" depart="1283.00" arrival="1477.00" arrivalPos="95.97" duration="194.00" routeLength="721.94" timeLoss="17.94"/>
    </personinfo>
    <personinfo id="410482520.22.849" depart="849.00" type="DEFAULT_PEDTYPE">
        <walk depart="849.00" departPos="2.85" arrival="850.00" arrivalPos="3.85" duration="1.00" routeLength="1.00" timeLoss="0.28" maxSpeed="1.39"/>
        <ride waitingTime="664.00" vehicle="bus_22:0.0" depart="1514.00" arrival="1663.00" arrivalPos="31.75" duration="149.00" routeLength="560.45" timeLoss="12.34"/>
    </personinfo>
    <personinfo id="410459904.22.506" depart="506.00" type="DEFAULT_PEDTYPE">
        <walk depart="506.00" departPos="19.22" arrival="507.00" arrivalPos="20.22" duration="1.00" routeLength="1.00" timeLoss="0.28" maxSpeed="1.39"/>
        <ride waitingTime="106.00" vehicle="bus_22:0.1" depart="613.00" arrival="1664.00" arrivalPos="176.33" duration="1051.00" routeLength="3884.64" timeLoss="86.57"/>
    </personinfo>
    <personinfo id="410459901.22.902" depart="902.00" type="DEFAULT_PEDTYPE">
        <walk depart="902.00" departPos="553.15" arrival="1343.00" arrivalPos="0.00" duration="441.00" routeLength="553.15" timeLoss="42.73" maxSpeed="1.39"/>
        <ride waitingTime="356.00" vehicle="bus_22:0.5" depart="1699.00" arrival="1880.00" arrivalPos="30.21" duration="181.00" routeLength="669.56" timeLoss="16.73"/>
    </personinfo>
    <personinfo id="1849631269.43.109" depart="109.00" type="DEFAULT_PEDTYPE">
        <walk depart="109.00" departPos="160.44" arrival="239.00" arrivalPos="0.00" duration="130.00" routeLength="160.44" timeLoss="14.48" maxSpeed="1.39"/>
        <ride waitingTime="644.00" vehicle="bus_43:0.0" depart="883.00" arrival="1925.00" arrivalPos="205.30" duration="1042.00" routeLength="3184.60" timeLoss="77.32"/>
    </personinfo>
    <personinfo id="410462293.43.228" depart="228.00" type="DEFAULT_PEDTYPE">
        <walk depart="228.00" departPos="10.48" arrival="229.00" arrivalPos="11.48" duration="1.00" routeLength="1.00" timeLoss="0.28" maxSpeed="1.39"/>
        <ride waitingTime="1293.00" vehicle="bus_43:0.0" depart="1522.00" arrival="1926.00" arrivalPos="205.30" duration="404.00" routeLength="1477.07" timeLoss="36.78"/>
    </personinfo>
    <personinfo id="410459904.22.1150" depart="1150.00" type="DEFAULT_PEDTYPE">
        <walk depart="1150.00" departPos="19.22" arrival="1151.00" arrivalPos="20.22" duration="1.00" routeLength="1.00" timeLoss="0.28" maxSpeed="1.39"/>
        <ride waitingTime="118.00" vehicle="bus_22:0.3" depart="1269.00" arrival="1936.00" arrivalPos="62.46" duration="667.00" routeLength="2526.92" timeLoss="50.69"/>
    </personinfo>
    <personinfo id="410459904.22.404" depart="404.00" type="DEFAULT_PEDTYPE">
        <walk depart="404.00" departPos="19.22" arrival="405.00" arrivalPos="20.22" duration="1.00" routeLength="1.00" timeLoss="0.28" maxSpeed="1.39"/>
        <ride waitingTime="208.00" vehicle="bus_22:0.1" depart="613.00" arrival="2135.00" arrivalPos="83.09" duration="1522.00" routeLength="5325.40" timeLoss="115.18"/>
    </personinfo>
    <personinfo id="410459904.22.876" depart="876.00" type="DEFAULT_PEDTYPE">
        <walk depart="876.00" departPos="19.22" arrival="877.00" arrivalPos="20.22" duration="1.00" routeLength="1.00" timeLoss="0.28" maxSpeed="1.39"/>
        <ride waitingTime="35.00" vehicle="bus_22:0.2" depart="912.00" arrival="2148.00" arrivalPos="31.75" duration="1236.00" routeLength="4689.99" timeLoss="92.13"/>
    </personinfo>
    <personinfo id="1849631273.43.700" depart="700.00" type="DEFAULT_PEDTYPE">
        <walk depart="700.00" departPos="413.46" arrival="1031.00" arrivalPos="0.00" duration="331.00" routeLength="413.46" timeLoss="33.31" maxSpeed="1.39"/>
        <ride waitingTime="212.00" vehicle="bus_43:0.0" depart="1243.00" arrival="2179.00" arrivalPos="29.61" duration="936.00" routeLength="3041.31" timeLoss="76.28"/>
    </personinfo>
    <personinfo id="410486955.43.1825" depart="1825.00" type="DEFAULT_PEDTYPE">
        <walk depart="1825.00" departPos="49.88" arrival="1826.00" arrivalPos="50.88" duration="1.00" routeLength="1.00" timeLoss="0.28" maxSpeed="1.39"/>
        <ride waitingTime="243.00" vehicle="bus_43:0.0" depart="2069.00" arrival="2179.00" arrivalPos="29.61" duration="110.00" routeLength="407.49" timeLoss="10.62"/>
    </personinfo>
    <personinfo id="1849631269.43.1014" depart="1014.00" type="DEFAULT_PEDTYPE">
        <walk depart="1014.00" departPos="160.44" arrival="1142.00" arrivalPos="0.00" duration="128.00" routeLength="160.44" timeLoss="12.48" maxSpeed="1.39"/>
        <ride waitingTime="73.00" vehicle="bus_43:0.1" depart="1215.00" arrival="2182.00" arrivalPos="60.88" duration="967.00" routeLength="3643.62" timeLoss="77.34"/>
    </personinfo>
    <personinfo id="410459901.22.1047" depart="1047.00" type="DEFAULT_PEDTYPE">
        <walk depart="1047.00" departPos="553.15" arrival="1491.00" arrivalPos="0.00" duration="444.00" routeLength="553.15" timeLoss="45.73" maxSpeed="1.39"/>
        <ride waitingTime="208.00" vehicle="bus_22:0.5" depart="1699.00" arrival="2192.00" arrivalPos="26.17" duration="493.00" routeLength="1825.90" timeLoss="45.71"/>
    </personinfo>
    <personinfo id="410462291.43.1717" depart="1717.00" type="DEFAULT_PEDTYPE">
        <walk depart="1717.00" departPos="415.85" arrival="2050.00" arrivalPos="0.00" duration="333.00" routeLength="415.85" timeLoss="33.59" maxSpeed="1.39"/>
        <ride waitingTime="11.00" vehicle="bus_43:0.2" depart="2061.00" arrival="2256.00" arrivalPos="205.33" duration="195.00" routeLength="729.95" timeLoss="16.97"/>
    </personinfo>
    <personinfo id="410462211.43.1070" depart="1070.00" type="DEFAULT_PEDTYPE">
        <walk depart="1070.00" departPos="18.63" arrival="1071.00" arrivalPos="19.63" duration="1.00" routeLength="1.00" timeLoss="0.28" maxSpeed="1.39"/>
        <ride waitingTime="568.00" vehicle="bus_43:0.0" depart="1639.00" arrival="2333.00" arrivalPos="11.11" duration="694.00" routeLength="2168.85" timeLoss="55.05"/>
    </personinfo>
    <personinfo id="410482570.22.1922" depart="1922.00" type="DEFAULT_PEDTYPE">
        <walk depart="1922.00" departPos="91.56" arrival="1923.00" arrivalPos="92.56" duration="1.00" routeLength="1.00" timeLoss="0.28" maxSpeed="1.39"/>
        <ride waitingTime="243.00" vehicle="bus_22:0.0" depart="2166.00" arrival="2387.00" arrivalPos="29.18" duration="221.00" routeLength="829.25" timeLoss="18.78"/>
    </personinfo>
    <personinfo id="410474348.43.908" depart="908.00" type="DEFAULT_PEDTYPE">
        <walk depart="908.00" departPos="25.59" arrival="909.00" arrivalPos="26.59" duration="1.00" routeLength="1.00" timeLoss="0.28" maxSpeed="1.39"/>
        <ride waitingTime="132.00" vehicle="bus_43:0.1" depart="1041.00" arrival="2549.00" arrivalPos="40.59" duration="1508.00" routeLength="5376.79" timeLoss="193.62"/>
    </personinfo>
    <personinfo id="410459904.22.1629" depart="1629.00" type="DEFAULT_PEDTYPE">
        <walk depart="1629.00" departPos="19.22" arrival="1630.00" arrivalPos="20.22" duration="1.00" routeLength="1.00" timeLoss="0.28" maxSpeed="1.39"/>
        <ride waitingTime="251.00" vehicle="bus_22:0.5" depart="1881.00" arrival="2563.00" arrivalPos="62.45" duration="682.00" routeLength="2526.92" timeLoss="63.71"/>
    </personinfo>
    <personinfo id="410462211.43.671" depart="671.00" type="DEFAULT_PEDTYPE">
        <walk depart="671.00" departPos="18.63" arrival="672.00" arrivalPos="19.63" duration="1.00" routeLength="1.00" timeLoss="0.28" maxSpeed="1.39"/>
        <ride waitingTime="967.00" vehicle="bus_43:0.0" depart="1639.00" arrival="2610.00" arrivalPos="108.30" duration="971.00" routeLength="2843.48" timeLoss="75.54"/>
    </personinfo>
    <personinfo id="410482520.22.905" depart="905.00" type="DEFAULT_PEDTYPE">
        <walk depart="905.00" departPos="2.85" arrival="906.00" arrivalPos="3.85" duration="1.00" routeLength="1.00" timeLoss="0.28" maxSpeed="1.39"/>
        <ride waitingTime="608.00" vehicle="bus_22:0.0" depart="1514.00" arrival="2621.00" arrivalPos="20.97" duration="1107.00" routeLength="3468.57" timeLoss="78.08"/>
    </personinfo>
    <personinfo id="410486955.43.2366" depart="2366.00" type="DEFAULT_PEDTYPE">
        <walk depart="2366.00" departPos="49.88" arrival="2367.00" arrivalPos="50.88" duration="1.00" routeLength="1.00" timeLoss="0.28" maxSpeed="1.39"/>
        <ride waitingTime="131.00" vehicle="bus_43:0.2" depart="2498.00" arrival="2674.00" arrivalPos="11.11" duration="176.00" routeLength="658.02" timeLoss="15.52"/>
    </personinfo>
    <personinfo id="410462103.22.1593" depart="1593.00" type="DEFAULT_PEDTYPE">
        <walk depart="1593.00" departPos="51.46" arrival="1594.00" arrivalPos="52.46" duration="1.00" routeLength="1.00" timeLoss="0.28" maxSpeed="1.39"/>
        <ride waitingTime="343.00" vehicle="bus_22:0.3" depart="1937.00" arrival="2683.00" arrivalPos="83.09" duration="746.00" routeLength="2798.46" timeLoss="62.47"/>
    </personinfo>
    <personinfo id="410486991.43.2576" depart="2576.00" type="DEFAULT_PEDTYPE">
        <walk depart="2576.00" departPos="194.33" arrival="2577.00" arrivalPos="195.33" duration="1.00" routeLength="1.00" timeLoss="0.28" maxSpeed="1.39"/>
        <ride waitingTime="47.00" vehicle="bus_43:0.3" depart="2624.00" arrival="2748.00" arrivalPos="60.86" duration="124.00" routeLength="458.96" timeLoss="12.08"/>
    </personinfo>
    <personinfo id="410482570.22.1821" depart="1821.00" type="DEFAULT_PEDTYPE">
        <walk depart="1821.00" departPos="91.56" arrival="1822.00" arrivalPos="92.56" duration="1.00" routeLength="1.00" timeLoss="0.28" maxSpeed="1.39"/>
        <ride waitingTime="344.00" vehicle="bus_22:0.0" depart="2166.00" arrival="2750.00" arrivalPos="323.23" duration="584.00" routeLength="1836.75" timeLoss="44.06"/>
    </personinfo>
    <personinfo id="410459897.22.1774" depart="1774.00" type="DEFAULT_PEDTYPE">
        <walk depart="1774.00" departPos="23.17" arrival="1775.00" arrivalPos="24.17" duration="1.00" routeLength="1.00" timeLoss="0.28" maxSpeed="1.39"/>
        <ride waitingTime="79.00" vehicle="bus_22:0.5" depart="1854.00" arrival="2756.00" arrivalPos="95.99" duration="902.00" routeLength="3340.36" timeLoss="83.32"/>
    </personinfo>
    <personinfo id="410486955.43.2267" depart="2267.00" type="DEFAULT_PEDTYPE">
        <walk depart="2267.00" departPos="49.88" arrival="2268.00" arrivalPos="50.88" duration="1.00" routeLength="1.00" timeLoss="0.28" maxSpeed="1.39"/>
        <ride waitingTime="230.00" vehicle="bus_43:0.2" depart="2498.00" arrival="2799.00" arrivalPos="40.58" duration="301.00" routeLength="1090.66" timeLoss="26.01"/>
    </personinfo>
    <personinfo id="410459904.22.871" depart="871.00" type="DEFAULT_PEDTYPE">
        <walk depart="871.00" departPos="19.22" arrival="872.00" arrivalPos="20.22" duration="1.00" routeLength="1.00" timeLoss="0.28" maxSpeed="1.39"/>
        <ride waitingTime="40.00" vehicle="bus_22:0.2" depart="912.00" arrival="2821.00" arrivalPos="29.16" duration="1909.00" routeLength="7066.97" timeLoss="140.39"/>
    </personinfo>
    <personinfo id="410486955.43.2224" depart="2224.00" type="DEFAULT_PEDTYPE">
        <walk depart="2224.00" departPos="49.88" arrival="2225.00" arrivalPos="50.88" duration="1.00" routeLength="1.00" timeLoss="0.28" maxSpeed="1.39"/>
        <ride waitingTime="273.00" vehicle="bus_43:0.2" depart="2498.00" arrival="2856.00" arrivalPos="68.27" duration="358.00" routeLength="1292.60" timeLoss="32.77"/>
    </personinfo>
    <personinfo id="410486955.43.2348" depart="2348.00" type="DEFAULT_PEDTYPE">
        <walk depart="2348.00" departPos="49.88" arrival="2349.00" arrivalPos="50.88" duration="1.00" routeLength="1.00" timeLoss="0.28" maxSpeed="1.39"/>
        <ride waitingTime="149.00" vehicle="bus_43:0.2" depart="2498.00" arrival="2856.00" arrivalPos="68.27" duration="358.00" routeLength="1292.55" timeLoss="32.77"/>
    </personinfo>
    <personinfo id="2429952037.43.621" depart="621.00" type="DEFAULT_PEDTYPE">
        <walk depart="621.00" departPos="506.84" arrival="1025.00" arrivalPos="0.00" duration="404.00" routeLength="506.84" timeLoss="39.08" maxSpeed="1.39"/>
        <ride waitingTime="260.00" vehicle="bus_43:0.1" depart="1285.00" arrival="2889.00" arrivalPos="33.14" duration="1604.00" routeLength="5237.74" timeLoss="284.53"/>
    </personinfo>
    <personinfo id="410462101.22.2255" depart="2255.00" type="DEFAULT_PEDTYPE">
        <walk depart="2255.00" departPos="11.46" arrival="2256.00" arrivalPos="12.46" duration="1.00" routeLength="1.00" timeLoss="0.28" maxSpeed="1.39"/>
        <ride waitingTime="292.00" vehicle="bus_22:0.5" depart="2548.00" arrival="2931.00" arrivalPos="176.34" duration="383.00" routeLength="1397.73" timeLoss="39.12"/>
    </personinfo>
    <personinfo id="410480716.22.817" depart="817.00" type="DEFAULT_PEDTYPE">
        <walk depart="817.00" departPos="9.98" arrival="818.00" arrivalPos="10.98" duration="1.00" routeLength="1.00" timeLoss="0.28" maxSpeed="1.39"/>
        <ride waitingTime="1804.00" vehicle="bus_22:0.0" depart="2622.00" arrival="2938.00" arrivalPos="138.89" duration="316.00" routeLength="934.61" timeLoss="23.07"/>
    </personinfo>
    <personinfo id="410482570.22.2741" depart="2741.00" type="DEFAULT_PEDTYPE">
        <walk depart="2741.00" departPos="91.56" arrival="2742.00" arrivalPos="92.56" duration="1.00" routeLength="1.00" timeLoss="0.28" maxSpeed="1.39"/>
        <ride waitingTime="187.00" vehicle="bus_22:0.3" depart="2929.00" arrival="2974.00" arrivalPos="258.29" duration="45.00" routeLength="155.77" timeLoss="7.03"/>
    </personinfo>
    <personinfo id="410459904.22.2029" depart="2029.00" type="DEFAULT_PEDTYPE">
        <walk depart="2029.00" departPos="19.22" arrival="2030.00" arrivalPos="20.22" duration="1.00" routeLength="1.00" timeLoss="0.28" maxSpeed="1.39"/>
        <ride waitingTime="86.00" vehicle="bus_22:0.6" depart="2116.00" arrival="2980.00" arrivalPos="95.96" duration="864.00" routeLength="3248.80" timeLoss="70.64"/>
    </personinfo>
    <personinfo id="410462293.43.690" depart="690.00" type="DEFAULT_PEDTYPE">
        <walk depart="690.00" departPos="10.48" arrival="691.00" arrivalPos="11.48" duration="1.00" routeLength="1.00" timeLoss="0.28" maxSpeed="1.39"/>
        <ride waitingTime="831.00" vehicle="bus_43:0.0" depart="1522.00" arrival="2991.00" arrivalPos="95.99" duration="1469.00" routeLength="4151.20" timeLoss="120.60"/>
    </personinfo>
    <personinfo id="410462291.43.1112" depart="1112.00" type="DEFAULT_PEDTYPE">
        <walk depart="1112.00" departPos="415.85" arrival="1445.00" arrivalPos="0.00" duration="333.00" routeLength="415.85" timeLoss="33.59" maxSpeed="1.39"/>
        <ride waitingTime="283.00" vehicle="bus_43:0.0" depart="1728.00" arrival="2992.00" arrivalPos="95.99" duration="1264.00" routeLength="3404.06" timeLoss="100.80"/>
    </personinfo>
    <personinfo id="410471030.22.2761" depart="2761.00" type="DEFAULT_PEDTYPE">
        <walk depart="2761.00" departPos="18.18" arrival="2762.00" arrivalPos="19.18" duration="1.00" routeLength="1.00" timeLoss="0.28" maxSpeed="1.39"/>
        <ride waitingTime="106.00" vehicle="bus_22:0.2" depart="2868.00" arrival="3009.00" arrivalPos="20.98" duration="141.00" routeLength="531.21" timeLoss="11.45"/>
    </personinfo>
    <personinfo id="410482568.22.2271" depart="2271.00" type="DEFAULT_PEDTYPE">
        <walk depart="2271.00" departPos="3.17" arrival="2272.00" arrivalPos="4.17" duration="1.00" routeLength="1.00" timeLoss="0.28" maxSpeed="1.39"/>
        <ride waitingTime="292.00" vehicle="bus_22:0.3" depart="2564.00" arrival="3062.00" arrivalPos="10.12" duration="498.00" routeLength="1829.06" timeLoss="48.94"/>
    </personinfo>
    <personinfo id="410460005.22.1774" depart="1774.00" type="DEFAULT_PEDTYPE">
        <walk depart="1774.00" departPos="286.81" arrival="2004.00" arrivalPos="0.00" duration="230.00" routeLength="286.81" timeLoss="23.50" maxSpeed="1.39"/>
        <ride waitingTime="98.00" vehicle="bus_22:0.7" depart="2102.00" arrival="3085.00" arrivalPos="22.45" duration="983.00" routeLength="3653.98" timeLoss="87.84"/>
    </personinfo>
    <personinfo id="410460005.22.910" depart="910.00" type="DEFAULT_PEDTYPE">
        <walk depart="910.00" departPos="286.81" arrival="1140.00" arrivalPos="0.00" duration="230.00" routeLength="286.81" timeLoss="23.50" maxSpeed="1.39"/>
        <ride waitingTime="62.00" vehicle="bus_22:0.4" depart="1202.00" arrival="3088.00" arrivalPos="98.67" duration="1886.00" routeLength="7140.20" timeLoss="144.49"/>
    </personinfo>
    <personinfo id="410460005.22.2757" depart="2757.00" type="DEFAULT_PEDTYPE">
        <walk depart="2757.00" departPos="286.81" arrival="2985.00" arrivalPos="0.00" duration="228.00" routeLength="286.81" timeLoss="21.50" maxSpeed="1.39"/>
        <ride waitingTime="22.00" vehicle="bus_22:0.10" depart="3007.00" arrival="3142.00" arrivalPos="10.32" duration="135.00" routeLength="497.60" timeLoss="13.64"/>
    </personinfo>
    <personinfo id="410462103.22.2736" depart="2736.00" type="DEFAULT_PEDTYPE">
        <walk depart="2736.00" departPos="51.46" arrival="2737.00" arrivalPos="52.46" duration="1.00" routeLength="1.00" timeLoss="0.28" maxSpeed="1.39"/>
        <ride waitingTime="49.00" vehicle="bus_22:0.6" depart="2786.00" arrival="3150.00" arrivalPos="176.36" duration="364.00" routeLength="1357.77" timeLoss="31.86"/>
    </personinfo>
    <personinfo id="1855320978.43.2956" depart="2956.00" type="DEFAULT_PEDTYPE">
        <walk depart="2956.00" departPos="29.59" arrival="2957.00" arrivalPos="30.59" duration="1.00" routeLength="1.00" timeLoss="0.28" maxSpeed="1.39"/>
        <ride waitingTime="129.00" vehicle="bus_43:0.3" depart="3086.00" arrival="3154.00" arrivalPos="108.30" duration="68.00" routeLength="242.00" timeLoss="8.98"/>
    </personinfo>
    <personinfo id="410480724.22.675" depart="675.00" type="DEFAULT_PEDTYPE">
        <walk depart="675.00" departPos="26.17" arrival="676.00" arrivalPos="27.17" duration="1.00" routeLength="1.00" timeLoss="0.28" maxSpeed="1.39"/>
        <ride waitingTime="2300.00" vehicle="bus_22:0.0" depart="2976.00" arrival="3194.00" arrivalPos="39.40" duration="218.00" routeLength="702.08" timeLoss="21.77"/>
    </personinfo>
    <personinfo id="1849631273.43.236" depart="236.00" type="DEFAULT_PEDTYPE">
        <walk depart="236.00" departPos="413.46" arrival="568.00" arrivalPos="0.00" duration="332.00" routeLength="413.46" timeLoss="34.31" maxSpeed="1.39"/>
        <ride waitingTime="675.00" vehicle="bus_43:0.0" depart="1243.00" arrival="3260.00" arrivalPos="176.35" duration="2017.00" routeLength="5484.85" timeLoss="158.34"/>
    </personinfo>
    <personinfo id="2429952037.43.2050" depart="2050.00" type="DEFAULT_PEDTYPE">
        <walk depart="2050.00" departPos="506.84" arrival="2458.00" arrivalPos="0.00" duration="408.00" routeLength="506.84" timeLoss="43.08" maxSpeed="1.39"/>
        <ride waitingTime="223.00" vehicle="bus_43:0.6" depart="2681.00" arrival="3267.00" arrivalPos="10.16" duration="586.00" routeLength="2198.64" timeLoss="48.78"/>
    </personinfo>
    <personinfo id="410460005.22.370" depart="370.00" type="DEFAULT_PEDTYPE">
        <walk depart="370.00" departPos="286.81" arrival="599.00" arrivalPos="0.00" duration="229.00" routeLength="286.81" timeLoss="22.50" maxSpeed="1.39"/>
        <ride waitingTime="3.00" vehicle="bus_22:0.2" depart="602.00" arrival="3292.00" arrivalPos="138.89" duration="2690.00" routeLength="9699.75" timeLoss="198.27"/>
    </personinfo>
    <personinfo id="410459901.22.1720" depart="1720.00" type="DEFAULT_PEDTYPE">
        <walk depart="1720.00" departPos="553.15" arrival="2164.00" arrivalPos="0.00" duration="444.00" routeLength="553.15" timeLoss="45.73" maxSpeed="1.39"/>
        <ride waitingTime="72.00" vehicle="bus_22:0.7" depart="2236.00" arrival="3312.00" arrivalPos="95.98" duration="1076.00" routeLength="3918.33" timeLoss="95.38"/>
    </personinfo>
    <personinfo id="410459651.22.1926" depart="1926.00" type="DEFAULT_PEDTYPE">
        <walk depart="1926.00" departPos="15.18" arrival="1927.00" arrivalPos="16.18" duration="1.00" routeLength="1.00" timeLoss="0.28" maxSpeed="1.39"/>
        <ride waitingTime="266.00" vehicle="bus_22:0.5" depart="2193.00" arrival="3345.00" arrivalPos="83.08" duration="1152.00" routeLength="4169.01" timeLoss="100.22"/>
    </personinfo>
    <personinfo id="1849631273.43.835" depart="835.00" type="DEFAULT_PEDTYPE">
        <walk depart="835.00" departPos="413.46" arrival="1166.00" arrivalPos="0.00" duration="331.00" routeLength="413.46" timeLoss="33.31" maxSpeed="1.39"/>
        <ride waitingTime="77.00" vehicle="bus_43:0.0" depart="1243.00" arrival="3418.00" arrivalPos="13.83" duration="2175.00" routeLength="5729.75" timeLoss="165.62"/>
    </personinfo>
    <personinfo id="410459897.22.1121" depart="1121.00" type="DEFAULT_PEDTYPE">
        <walk depart="1121.00" departPos="23.17" arrival="1122.00" arrivalPos="24.17" duration="1.00" routeLength="1.00" timeLoss="0.28" maxSpeed="1.39"/>
        <ride waitingTime="96.00" vehicle="bus_22:0.3" depart="1218.00" arrival="3422.00" arrivalPos="323.24" duration="2204.00" routeLength="8166.01" timeLoss="181.37"/>
    </personinfo>
    <personinfo id="410464248.22.296" depart="296.00" type="DEFAULT_PEDTYPE">
        <walk depart="296.00" departPos="23.64" arrival="297.00" arrivalPos="24.64" duration="1.00" routeLength="1.00" timeLoss="0.28" maxSpeed="1.39"/>
        <ride waitingTime="2790.00" vehicle="bus_22:0.0" depart="3087.00" arrival="3437.00" arrivalPos="10.71" duration="350.00" routeLength="1264.75" timeLoss="35.55"/>
    </personinfo>
    <personinfo id="2429952037.43.2049" depart="2049.00" type="DEFAULT_PEDTYPE">
        <walk depart="2049.00" departPos="506.84" arrival="2457.00" arrivalPos="0.00" duration="408.00" routeLength="506.84" timeLoss="43.08" maxSpeed="1.39"/>
        <ride waitingTime="224.00" vehicle="bus_43:0.6" depart="2681.00" arrival="3465.00" arrivalPos="205.32" duration="784.00" routeLength="2928.55" timeLoss="65.76"/>
    </personinfo>
    <personinfo id="410459904.22.2288" depart="2288.00" type="DEFAULT_PEDTYPE">
        <walk depart="2288.00" departPos="19.22" arrival="2289.00" arrivalPos="20.22" duration="1.00" routeLength="1.00" timeLoss="0.28" maxSpeed="1.39"/>
        <ride waitingTime="133.00" vehicle="bus_22:0.7" depart="2422.00" arrival="3534.00" arrivalPos="176.34" duration="1112.00" routeLength="3884.59" timeLoss="93.60"/>
    </personinfo>
    <personinfo id="1847853709.43.890" depart="890.00" type="DEFAULT_PEDTYPE">
        <walk depart="890.00" departPos="16.23" arrival="891.00" arrivalPos="17.23" duration="1.00" routeLength="1.00" timeLoss="0.28" maxSpeed="1.39"/>
        <ride waitingTime="111.00" vehicle="bus_43:0.3" depart="1002.00" arrival="3559.00" arrivalPos="176.36" duration="2557.00" routeLength="9355.49" timeLoss="214.24"/>
    </personinfo>
    <personinfo id="410465917.22.410" depart="410.00" type="DEFAULT_PEDTYPE">
        <walk depart="410.00" departPos="21.70" arrival="411.00" arrivalPos="22.70" duration="1.00" routeLength="1.00" timeLoss="0.28" maxSpeed="1.39"/>
        <ride waitingTime="2894.00" vehicle="bus_22:0.0" depart="3305.00" arrival="3563.00" arrivalPos="10.28" duration="258.00" routeLength="936.83" timeLoss="24.52"/>
    </personinfo>
    <personinfo id="410465917.22.583" depart="583.00" type="DEFAULT_PEDTYPE">
        <walk depart="583.00" departPos="21.70" arrival="584.00" arrivalPos="22.70" duration="1.00" routeLength="1.00" timeLoss="0.28" maxSpeed="1.39"/>
        <ride waitingTime="2721.00" vehicle="bus_22:0.0" depart="3305.00" arrival="3563.00" arrivalPos="10.28" duration="258.00" routeLength="936.83" timeLoss="24.52"/>
    </personinfo>
    <personinfo id="410465917.22.1884" depart="1884.00" type="DEFAULT_PEDTYPE">
        <walk depart="1884.00" departPos="21.70" arrival="1885.00" arrivalPos="22.70" duration="1.00" routeLength="1.00" timeLoss="0.28" maxSpeed="1.39"/>
        <ride waitingTime="1420.00" vehicle="bus_22:0.0" depart="3305.00" arrival="3564.00" arrivalPos="10.28" duration="259.00" routeLength="936.83" timeLoss="24.52"/>
    </personinfo>
    <personinfo id="410465915.22.486" depart="486.00" type="DEFAULT_PEDTYPE">
        <walk depart="486.00" departPos="138.08" arrival="597.00" arrivalPos="0.00" duration="111.00" routeLength="138.08" timeLoss="11.58" maxSpeed="1.39"/>
        <ride waitingTime="2842.00" vehicle="bus_22:0.0" depart="3439.00" arrival="3564.00" arrivalPos="10.28" duration="125.00" routeLength="457.80" timeLoss="12.35"/>
    </personinfo>
    <personinfo id="410465915.22.1924" depart="1924.00" type="DEFAULT_PEDTYPE">
        <walk depart="1924.00" departPos="138.08" arrival="2035.00" arrivalPos="0.00" duration="111.00" routeLength="138.08" timeLoss="11.58" maxSpeed="1.39"/>
        <ride waitingTime="1404.00" vehicle="bus_22:0.0" depart="3439.00" arrival="3565.00" arrivalPos="10.28" duration="126.00" routeLength="457.80" timeLoss="12.35"/>
    </personinfo>
    <personinfo id="410465915.22.2338" depart="2338.00" type="DEFAULT_PEDTYPE">
        <walk depart="2338.00" departPos="138.08" arrival="2449.00" arrivalPos="0.00" duration="111.00" routeLength="138.08" timeLoss="11.58" maxSpeed="1.39"/>
        <ride waitingTime="990.00" vehicle="bus_22:0.0" depart="3439.00" arrival="3565.00" arrivalPos="10.28" duration="126.00" routeLength="457.76" timeLoss="12.35"/>
    </personinfo>
    <personinfo id="410465915.22.2568.1" depart="2568.00" type="DEFAULT_PEDTYPE">
        <walk depart="2568.00" departPos="138.08" arrival="2680.00" arrivalPos="0.00" duration="112.00" routeLength="138.08" timeLoss="12.58" maxSpeed="1.39"/>
        <ride waitingTime="759.00" vehicle="bus_22:0.0" depart="3439.00" arrival="3566.00" arrivalPos="10.28" duration="127.00" routeLength="457.76" timeLoss="12.35"/>
    </personinfo>
    <personinfo id="410482570.22.2241" depart="2241.00" type="DEFAULT_PEDTYPE">
        <walk depart="2241.00" departPos="91.56" arrival="2242.00" arrivalPos="92.56" duration="1.00" routeLength="1.00" timeLoss="0.28" maxSpeed="1.39"/>
        <ride waitingTime="270.00" vehicle="bus_22:0.1" depart="2512.00" arrival="3570.00" arrivalPos="10.72" duration="1058.00" routeLength="3996.92" timeLoss="82.17"/>
    </personinfo>
    <personinfo id="410462293.43.2648" depart="2648.00" type="DEFAULT_PEDTYPE">
        <walk depart="2648.00" departPos="10.48" arrival="2649.00" arrivalPos="11.48" duration="1.00" routeLength="1.00" timeLoss="0.28" maxSpeed="1.39"/>
        <ride waitingTime="113.00" vehicle="bus_43:0.5" depart="2762.00" arrival="3666.00" arrivalPos="108.29" duration="904.00" routeLength="3268.61" timeLoss="77.80"/>
    </personinfo>
    <personinfo id="410475114.22.3424" depart="3424.00" type="DEFAULT_PEDTYPE">
        <walk depart="3424.00" departPos="84.99" arrival="3425.00" arrivalPos="85.99" duration="1.00" routeLength="1.00" timeLoss="0.28" maxSpeed="1.39"/>
        <ride waitingTime="161.00" vehicle="bus_22:0.8" depart="3586.00" arrival="3674.00" arrivalPos="24.56" duration="88.00" routeLength="320.30" timeLoss="9.90"/>
    </personinfo>
    <personinfo id="410459651.22.3278" depart="3278.00" type="DEFAULT_PEDTYPE">
        <walk depart="3278.00" departPos="15.18" arrival="3279.00" arrivalPos="16.18" duration="1.00" routeLength="1.00" timeLoss="0.28" maxSpeed="1.39"/>
        <ride waitingTime="42.00" vehicle="bus_22:0.9" depart="3321.00" arrival="3675.00" arrivalPos="22.45" duration="354.00" routeLength="1330.57" timeLoss="29.49"/>
    </personinfo>
    <personinfo id="410459901.22.1423" depart="1423.00" type="DEFAULT_PEDTYPE">
        <walk depart="1423.00" departPos="553.15" arrival="1867.00" arrivalPos="0.00" duration="444.00" routeLength="553.15" timeLoss="45.73" maxSpeed="1.39"/>
        <ride waitingTime="68.00" vehicle="bus_22:0.6" depart="1935.00" arrival="3704.00" arrivalPos="98.67" duration="1769.00" routeLength="6642.61" timeLoss="144.91"/>