<?xml version="1.0" encoding="UTF-8"?>

<!-- generated on 2024-05-08 00:16:42 by Eclipse SUMO sumo Version 1.14.1
<configuration xmlns:xsi="http://www.w3.org/2001/XMLSchema-instance" xsi:noNamespaceSchemaLocation="http://sumo.dlr.de/xsd/sumoConfiguration.xsd">

    <input>
        <net-file value="singapore/sumo/singapore.net.xml"/>
        <route-files value="singapore/sumo/busFlows.rou.xml"/>
        <additional-files value="singapore/sumo/busstops.xml"/>
    </input>

    <output>
        <tripinfo-output value="tripinfo.xml"/>
    </output>

    <processing>
        <no-internal-links value="true"/>
        <time-to-teleport value="550"/>
    </processing>

    <traci_server>
        <remote-port value="51921"/>
    </traci_server>

</configuration>
-->

<tripinfos xmlns:xsi="http://www.w3.org/2001/XMLSchema-instance" xsi:noNamespaceSchemaLocation="http://sumo.dlr.de/xsd/tripinfo_file.xsd">
    <personinfo id="410459904.22.843" depart="843.00" type="DEFAULT_PEDTYPE">
        <walk depart="843.00" departPos="19.22" arrival="844.00" arrivalPos="20.22" duration="1.00" routeLength="1.00" timeLoss="0.28" maxSpeed="1.39"/>
        <ride waitingTime="75.00" vehicle="bus_22:0.1" depart="919.00" arrival="1228.00" arrivalPos="26.17" duration="309.00" routeLength="1156.41" timeLoss="26.97"/>
    </personinfo>
    <personinfo id="410459897.22.356" depart="356.00" type="DEFAULT_PEDTYPE">
        <walk depart="356.00" departPos="23.17" arrival="357.00" arrivalPos="24.17" duration="1.00" routeLength="1.00" timeLoss="0.28" maxSpeed="1.39"/>
        <ride waitingTime="533.00" vehicle="bus_22:0.1" depart="890.00" arrival="1580.00" arrivalPos="22.45" duration="690.00" routeLength="2578.38" timeLoss="59.16"/>
    </personinfo>
    <personinfo id="410467153.22.523" depart="523.00" type="DEFAULT_PEDTYPE">
        <walk depart="523.00" departPos="8.01" arrival="524.00" arrivalPos="9.01" duration="1.00" routeLength="1.00" timeLoss="0.28" maxSpeed="1.39"/>
        <ride waitingTime="310.00" vehicle="bus_22:0.0" depart="834.00" arrival="1650.00" arrivalPos="31.75" duration="816.00" routeLength="2704.68" timeLoss="152.35"/>
    </personinfo>
    <personinfo id="410474348.43.808" depart="808.00" type="DEFAULT_PEDTYPE">
        <walk depart="808.00" departPos="25.59" arrival="809.00" arrivalPos="26.59" duration="1.00" routeLength="1.00" timeLoss="0.28" maxSpeed="1.39"/>
        <ride waitingTime="534.00" vehicle="bus_43:0.1" depart="1343.00" arrival="1809.00" arrivalPos="10.64" duration="466.00" routeLength="1652.37" timeLoss="38.02"/>
    </personinfo>
    <personinfo id="410459901.22.728" depart="728.00" type="DEFAULT_PEDTYPE">
        <walk depart="728.00" departPos="553.15" arrival="1171.00" arrivalPos="0.00" duration="443.00" routeLength="553.15" timeLoss="44.73" maxSpeed="1.39"/>
        <ride waitingTime="164.00" vehicle="bus_22:0.2" depart="1335.00" arrival="2044.00" arrivalPos="19.00" duration="709.00" routeLength="2654.79" timeLoss="59.52"/>
    </personinfo>
    <personinfo id="410462103.22.222" depart="222.00" type="DEFAULT_PEDTYPE">
        <walk depart="222.00" departPos="51.46" arrival="223.00" arrivalPos="52.46" duration="1.00" routeLength="1.00" timeLoss="0.28" maxSpeed="1.39"/>
        <ride waitingTime="759.00" vehicle="bus_22:0.0" depart="982.00" arrival="2156.00" arrivalPos="258.28" duration="1174.00" routeLength="3866.63" timeLoss="181.95"/>
    </personinfo>
    <personinfo id="410474348.43.1559" depart="1559.00" type="DEFAULT_PEDTYPE">
        <walk depart="1559.00" departPos="25.59" arrival="1560.00" arrivalPos="26.59" duration="1.00" routeLength="1.00" timeLoss="0.28" maxSpeed="1.39"/>
        <ride waitingTime="320.00" vehicle="bus_43:0.2" depart="1880.00" arrival="2421.00" arrivalPos="10.65" duration="541.00" routeLength="1652.35" timeLoss="42.02"/>
    </personinfo>
    <personinfo id="410486991.43.994" depart="994.00" type="DEFAULT_PEDTYPE">
        <walk depart="994.00" departPos="194.33" arrival="995.00" arrivalPos="195.33" duration="1.00" routeLength="1.00" timeLoss="0.28" maxSpeed="1.39"/>
        <ride waitingTime="1276.00" vehicle="bus_43:0.0" depart="2271.00" arrival="2596.00" arrivalPos="29.60" duration="325.00" routeLength="866.39" timeLoss="22.69"/>
    </personinfo>
    <personinfo id="410462291.43.2065" depart="2065.00" type="DEFAULT_PEDTYPE">
        <walk depart="2065.00" departPos="415.85" arrival="2399.00" arrivalPos="0.00" duration="334.00" routeLength="415.85" timeLoss="34.59" maxSpeed="1.39"/>
        <ride waitingTime="34.00" vehicle="bus_43:0.1" depart="2433.00" arrival="2629.00" arrivalPos="205.32" duration="196.00" routeLength="729.94" timeLoss="17.97"/>
    </personinfo>
    <personinfo id="410459897.22.1834" depart="1834.00" type="DEFAULT_PEDTYPE">
        <walk depart="1834.00" departPos="23.17" arrival="1835.00" arrivalPos="24.17" duration="1.00" routeLength="1.00" timeLoss="0.28" maxSpeed="1.39"/>
        <ride waitingTime="259.00" vehicle="bus_22:0.3" depart="2094.00" arrival="2643.00" arrivalPos="18.99" duration="549.00" routeLength="2076.80" timeLoss="42.47"/>
    </personinfo>
    <personinfo id="410482520.22.70" depart="70.00" type="DEFAULT_PEDTYPE">
        <walk depart="70.00" departPos="2.85" arrival="71.00" arrivalPos="3.85" duration="1.00" routeLength="1.00" timeLoss="0.28" maxSpeed="1.39"/>
        <ride waitingTime="1429.00" vehicle="bus_22:0.0" depart="1500.00" arrival="2785.00" arrivalPos="138.88" duration="1285.00" routeLength="4403.11" timeLoss="114.13"/>
    </personinfo>
    <personinfo id="410482568.22.1236" depart="1236.00" type="DEFAULT_PEDTYPE">
        <walk depart="1236.00" departPos="3.17" arrival="1237.00" arrivalPos="4.17" duration="1.00" routeLength="1.00" timeLoss="0.28" maxSpeed="1.39"/>
        <ride waitingTime="472.00" vehicle="bus_22:0.0" depart="1709.00" arrival="2785.00" arrivalPos="138.88" duration="1076.00" routeLength="3646.77" timeLoss="91.60"/>
    </personinfo>
    <personinfo id="410475114.22.1610" depart="1610.00" type="DEFAULT_PEDTYPE">
        <walk depart="1610.00" departPos="84.99" arrival="1611.00" arrivalPos="85.99" duration="1.00" routeLength="1.00" timeLoss="0.28" maxSpeed="1.39"/>
        <ride waitingTime="481.00" vehicle="bus_22:0.1" depart="2092.00" arrival="2833.00" arrivalPos="13.85" duration="741.00" routeLength="880.80" timeLoss="525.20"/>
    </personinfo>
    <personinfo id="410467153.22.439" depart="439.00" type="DEFAULT_PEDTYPE">
        <walk depart="439.00" departPos="8.01" arrival="440.00" arrivalPos="9.01" duration="1.00" routeLength="1.00" timeLoss="0.28" maxSpeed="1.39"/>
        <ride waitingTime="394.00" vehicle="bus_22:0.0" depart="834.00" arrival="2843.00" arrivalPos="37.16" duration="2009.00" routeLength="6672.92" timeLoss="257.54"/>
    </personinfo>
    <personinfo id="410482570.22.1815" depart="1815.00" type="DEFAULT_PEDTYPE">
        <walk depart="1815.00" departPos="91.56" arrival="1816.00" arrivalPos="92.56" duration="1.00" routeLength="1.00" timeLoss="0.28" maxSpeed="1.39"/>
        <ride waitingTime="297.00" vehicle="bus_22:0.0" depart="2113.00" arrival="2844.00" arrivalPos="37.16" duration="731.00" routeLength="2420.44" timeLoss="66.71"/>
    </personinfo>
    <personinfo id="410480721.22.1956" depart="1956.00" type="DEFAULT_PEDTYPE">
        <walk depart="1956.00" departPos="312.24" arrival="1957.00" arrivalPos="313.24" duration="1.00" routeLength="1.00" timeLoss="0.28" maxSpeed="1.39"/>
        <ride waitingTime="703.00" vehicle="bus_22:0.0" depart="2660.00" arrival="2844.00" arrivalPos="37.16" duration="184.00" routeLength="583.82" timeLoss="17.63"/>
    </personinfo>
    <personinfo id="410483103.22.154" depart="154.00" type="DEFAULT_PEDTYPE">
        <walk depart="154.00" departPos="165.36" arrival="155.00" arrivalPos="166.36" duration="1.00" routeLength="1.00" timeLoss="0.28" maxSpeed="1.39"/>
        <ride waitingTime="1276.00" vehicle="bus_22:0.0" depart="1431.00" arrival="2966.00" arrivalPos="34.60" duration="1535.00" routeLength="5085.29" timeLoss="135.77"/>
    </personinfo>
    <personinfo id="410480721.22.1800" depart="1800.00" type="DEFAULT_PEDTYPE">
        <walk depart="1800.00" departPos="312.24" arrival="1801.00" arrivalPos="313.24" duration="1.00" routeLength="1.00" timeLoss="0.28" maxSpeed="1.39"/>
        <ride waitingTime="859.00" vehicle="bus_22:0.0" depart="2660.00" arrival="2967.00" arrivalPos="34.60" duration="307.00" routeLength="895.52" timeLoss="26.62"/>
    </personinfo>
    <personinfo id="410486991.43.2525" depart="2525.00" type="DEFAULT_PEDTYPE">
        <walk depart="2525.00" departPos="194.33" arrival="2526.00" arrivalPos="195.33" duration="1.00" routeLength="1.00" timeLoss="0.28" maxSpeed="1.39"/>
        <ride waitingTime="194.00" vehicle="bus_43:0.1" depart="2720.00" arrival="2991.00" arrivalPos="29.60" duration="271.00" routeLength="866.37" timeLoss="23.71"/>
    </personinfo>
    <personinfo id="410462101.22.1368" depart="1368.00" type="DEFAULT_PEDTYPE">
        <walk depart="1368.00" departPos="11.46" arrival="1369.00" arrivalPos="12.46" duration="1.00" routeLength="1.00" timeLoss="0.28" maxSpeed="1.39"/>
        <ride waitingTime="212.00" vehicle="bus_22:0.1" depart="1581.00" arrival="3036.00" arrivalPos="14.17" duration="1455.00" routeLength="2399.03" timeLoss="760.92"/>
    </personinfo>
    <personinfo id="1531005322.22.2048" depart="2048.00" type="DEFAULT_PEDTYPE">
        <walk depart="2048.00" departPos="12.13" arrival="2049.00" arrivalPos="13.13" duration="1.00" routeLength="1.00" timeLoss="0.28" maxSpeed="1.39"/>
        <ride waitingTime="634.00" vehicle="bus_22:0.1" depart="2683.00" arrival="3036.00" arrivalPos="14.17" duration="353.00" routeLength="1316.82" timeLoss="30.84"/>
    </personinfo>
    <personinfo id="2429952037.43.2045" depart="2045.00" type="DEFAULT_PEDTYPE">
        <walk depart="2045.00" departPos="506.84" arrival="2452.00" arrivalPos="0.00" duration="407.00" routeLength="506.84" timeLoss="42.08" maxSpeed="1.39"/>
        <ride waitingTime="237.00" vehicle="bus_43:0.3" depart="2689.00" arrival="3042.00" arrivalPos="61.19" duration="353.00" routeLength="1341.61" timeLoss="25.79"/>
    </personinfo>
    <personinfo id="410459904.22.1339" depart="1339.00" type="DEFAULT_PEDTYPE">
        <walk depart="1339.00" departPos="19.22" arrival="1340.00" arrivalPos="20.22" duration="1.00" routeLength="1.00" timeLoss="0.28" maxSpeed="1.39"/>
        <ride waitingTime="179.00" vehicle="bus_22:0.2" depart="1519.00" arrival="3074.00" arrivalPos="14.17" duration="1555.00" routeLength="4885.95" timeLoss="105.34"/>
    </personinfo>
    <personinfo id="410486991.43.778" depart="778.00" type="DEFAULT_PEDTYPE">
        <walk depart="778.00" departPos="194.33" arrival="779.00" arrivalPos="195.33" duration="1.00" routeLength="1.00" timeLoss="0.28" maxSpeed="1.39"/>
        <ride waitingTime="1492.00" vehicle="bus_43:0.0" depart="2271.00" arrival="3121.00" arrivalPos="108.30" duration="850.00" routeLength="1791.60" timeLoss="47.08"/>
    </personinfo>
    <personinfo id="410471030.22.735" depart="735.00" type="DEFAULT_PEDTYPE">
        <walk depart="735.00" departPos="18.18" arrival="736.00" arrivalPos="19.18" duration="1.00" routeLength="1.00" timeLoss="0.28" maxSpeed="1.39"/>
        <ride waitingTime="1647.00" vehicle="bus_22:0.0" depart="2383.00" arrival="3132.00" arrivalPos="39.39" duration="749.00" routeLength="2293.32" timeLoss="64.73"/>
    </personinfo>
    <personinfo id="410464248.22.1071" depart="1071.00" type="DEFAULT_PEDTYPE">
        <walk depart="1071.00" departPos="23.64" arrival="1072.00" arrivalPos="24.64" duration="1.00" routeLength="1.00" timeLoss="0.28" maxSpeed="1.39"/>
        <ride waitingTime="1955.00" vehicle="bus_22:0.0" depart="3027.00" arrival="3133.00" arrivalPos="39.39" duration="106.00" routeLength="390.41" timeLoss="9.81"/>
    </personinfo>
    <personinfo id="410464248.22.1639" depart="1639.00" type="DEFAULT_PEDTYPE">
        <walk depart="1639.00" departPos="23.64" arrival="1640.00" arrivalPos="24.64" duration="1.00" routeLength="1.00" timeLoss="0.28" maxSpeed="1.39"/>
        <ride waitingTime="1387.00" vehicle="bus_22:0.0" depart="3027.00" arrival="3133.00" arrivalPos="39.39" duration="106.00" routeLength="390.41" timeLoss="9.81"/>
    </personinfo>
    <personinfo id="410459904.22.1192" depart="1192.00" type="DEFAULT_PEDTYPE">
        <walk depart="1192.00" departPos="19.22" arrival="1193.00" arrivalPos="20.22" duration="1.00" routeLength="1.00" timeLoss="0.28" maxSpeed="1.39"/>
        <ride waitingTime="326.00" vehicle="bus_22:0.2" depart="1519.00" arrival="3263.00" arrivalPos="83.10" duration="1744.00" routeLength="5325.43" timeLoss="117.16"/>
    </personinfo>
    <personinfo id="1847853709.43.609" depart="609.00" type="DEFAULT_PEDTYPE">
        <walk depart="609.00" departPos="16.23" arrival="610.00" arrivalPos="17.23" duration="1.00" routeLength="1.00" timeLoss="0.28" maxSpeed="1.39"/>
        <ride waitingTime="52.00" vehicle="bus_43:0.1" depart="662.00" arrival="3319.00" arrivalPos="68.29" duration="2657.00" routeLength="7797.05" timeLoss="188.37"/>
    </personinfo>
    <personinfo id="410462211.43.1844" depart="1844.00" type="DEFAULT_PEDTYPE">
        <walk depart="1844.00" departPos="18.63" arrival="1845.00" arrivalPos="19.63" duration="1.00" routeLength="1.00" timeLoss="0.28" maxSpeed="1.39"/>
        <ride waitingTime="499.00" vehicle="bus_43:0.1" depart="2344.00" arrival="3319.00" arrivalPos="68.29" duration="975.00" routeLength="2803.42" timeLoss="72.28"/>
    </personinfo>
    <personinfo id="410462291.43.1140" depart="1140.00" type="DEFAULT_PEDTYPE">
        <walk depart="1140.00" departPos="415.85" arrival="1475.00" arrivalPos="0.00" duration="335.00" routeLength="415.85" timeLoss="35.59" maxSpeed="1.39"/>
        <ride waitingTime="506.00" vehicle="bus_43:0.0" depart="1981.00" arrival="3320.00" arrivalPos="33.16" duration="1339.00" routeLength="3039.21" timeLoss="78.80"/>
    </personinfo>
    <personinfo id="410467153.22.583" depart="583.00" type="DEFAULT_PEDTYPE">
        <walk depart="583.00" departPos="8.01" arrival="584.00" arrivalPos="9.01" duration="1.00" routeLength="1.00" timeLoss="0.28" maxSpeed="1.39"/>
        <ride waitingTime="250.00" vehicle="bus_22:0.0" depart="834.00" arrival="3337.00" arrivalPos="32.70" duration="2503.00" routeLength="7770.30" timeLoss="286.92"/>
    </personinfo>
    <personinfo id="410462103.22.774" depart="774.00" type="DEFAULT_PEDTYPE">
        <walk depart="774.00" departPos="51.46" arrival="775.00" arrivalPos="52.46" duration="1.00" routeLength="1.00" timeLoss="0.28" maxSpeed="1.39"/>
        <ride waitingTime="207.00" vehicle="bus_22:0.0" depart="982.00" arrival="3338.00" arrivalPos="32.70" duration="2356.00" routeLength="7228.72" timeLoss="273.01"/>
    </personinfo>
    <personinfo id="410480722.22.2107" depart="2107.00" type="DEFAULT_PEDTYPE">
        <walk depart="2107.00" departPos="184.20" arrival="2108.00" arrivalPos="185.20" duration="1.00" routeLength="1.00" timeLoss="0.28" maxSpeed="1.39"/>
        <ride waitingTime="515.00" vehicle="bus_22:0.0" depart="2623.00" arrival="3338.00" arrivalPos="32.70" duration="715.00" routeLength="1809.21" timeLoss="51.80"/>
    </personinfo>
    <personinfo id="410480724.22.902" depart="902.00" type="DEFAULT_PEDTYPE">
        <walk depart="902.00" departPos="26.17" arrival="903.00" arrivalPos="27.17" duration="1.00" routeLength="1.00" timeLoss="0.28" maxSpeed="1.39"/>
        <ride waitingTime="1977.00" vehicle="bus_22:0.0" depart="2880.00" arrival="3339.00" arrivalPos="32.70" duration="459.00" routeLength="1097.41" timeLoss="29.38"/>
    </personinfo>
    <personinfo id="1531005322.22.2291" depart="2291.00" type="DEFAULT_PEDTYPE">
        <walk depart="2291.00" departPos="12.13" arrival="2292.00" arrivalPos="13.13" duration="1.00" routeLength="1.00" timeLoss="0.28" maxSpeed="1.39"/>
        <ride waitingTime="391.00" vehicle="bus_22:0.1" depart="2683.00" arrival="3397.00" arrivalPos="102.56" duration="714.00" routeLength="2668.71" timeLoss="60.12"/>
    </personinfo>
    <personinfo id="2429952037.43.1924" depart="1924.00" type="DEFAULT_PEDTYPE">
        <walk depart="1924.00" departPos="506.84" arrival="2331.00" arrivalPos="0.00" duration="407.00" routeLength="506.84" timeLoss="42.08" maxSpeed="1.39"/>
        <ride waitingTime="358.00" vehicle="bus_43:0.3" depart="2689.00" arrival="3505.00" arrivalPos="10.14" duration="816.00" routeLength="2198.61" timeLoss="50.79"/>
    </personinfo>
    <personinfo id="410462293.43.2672" depart="2672.00" type="DEFAULT_PEDTYPE">
        <walk depart="2672.00" departPos="10.48" arrival="2673.00" arrivalPos="11.48" duration="1.00" routeLength="1.00" timeLoss="0.28" maxSpeed="1.39"/>
        <ride waitingTime="539.00" vehicle="bus_43:0.3" depart="3212.00" arrival="3506.00" arrivalPos="10.14" duration="294.00" routeLength="747.18" timeLoss="19.78"/>
    </personinfo>
    <personinfo id="410486955.43.1184" depart="1184.00" type="DEFAULT_PEDTYPE">
        <walk depart="1184.00" departPos="49.88" arrival="1185.00" arrivalPos="50.88" duration="1.00" routeLength="1.00" timeLoss="0.28" maxSpeed="1.39"/>
        <ride waitingTime="1302.00" vehicle="bus_43:0.0" depart="2487.00" arrival="3510.00" arrivalPos="95.99" duration="1023.00" routeLength="2215.16" timeLoss="57.76"/>
    </personinfo>
    <personinfo id="410486969.43.1237" depart="1237.00" type="DEFAULT_PEDTYPE">
        <walk depart="1237.00" departPos="0.12" arrival="1238.00" arrivalPos="1.12" duration="1.00" routeLength="1.00" timeLoss="0.28" maxSpeed="1.39"/>
        <ride waitingTime="1609.00" vehicle="bus_43:0.0" depart="2847.00" arrival="3510.00" arrivalPos="95.99" duration="663.00" routeLength="1557.16" timeLoss="41.25"/>
    </personinfo>
    <personinfo id="410465917.22.2602" depart="2602.00" type="DEFAULT_PEDTYPE">
        <walk depart="2602.00" departPos="21.70" arrival="2603.00" arrivalPos="22.70" duration="1.00" routeLength="1.00" timeLoss="0.28" maxSpeed="1.39"/>
        <ride waitingTime="823.00" vehicle="bus_22:0.0" depart="3426.00" arrival="3557.00" arrivalPos="10.73" duration="131.00" routeLength="479.08" timeLoss="12.15"/>
    </personinfo>
    <personinfo id="410465917.22.3036" depart="3036.00" type="DEFAULT_PEDTYPE">
        <walk depart="3036.00" departPos="21.70" arrival="3037.00" arrivalPos="22.70" duration="1.00" routeLength="1.00" timeLoss="0.28" maxSpeed="1.39"/>
        <ride waitingTime="389.00" vehicle="bus_22:0.0" depart="3426.00" arrival="3558.00" arrivalPos="10.73" duration="132.00" routeLength="479.08" timeLoss="12.15"/>
    </personinfo>
    <personinfo id="410465917.22.3369" depart="3369.00" type="DEFAULT_PEDTYPE">
        <walk depart="3369.00" departPos="21.70" arrival="3370.00" arrivalPos="22.70" duration="1.00" routeLength="1.00" timeLoss="0.28" maxSpeed="1.39"/>
        <ride waitingTime="56.00" vehicle="bus_22:0.0" depart="3426.00" arrival="3558.00" arrivalPos="10.73" duration="132.00" routeLength="479.08" timeLoss="12.15"/>
    </personinfo>
    <personinfo id="410475114.43.1158" depart="1158.00" type="DEFAULT_PEDTYPE">
        <walk depart="1158.00" departPos="84.99" arrival="1159.00" arrivalPos="85.99" duration="1.00" routeLength="1.00" timeLoss="0.28" maxSpeed="1.39"/>
        <ride waitingTime="933.00" vehicle="bus_22:0.1" depart="2092.00" arrival="3620.00" arrivalPos="29.18" duration="1528.00" routeLength="3818.20" timeLoss="591.77"/>
    </personinfo>
    <personinfo id="1849631331.43.3101" depart="3101.00" type="DEFAULT_PEDTYPE">
        <walk depart="3101.00" departPos="42.45" arrival="3102.00" arrivalPos="43.45" duration="1.00" routeLength="1.00" timeLoss="0.28" maxSpeed="1.39"/>
        <ride waitingTime="158.00" vehicle="bus_43:0.5" depart="3260.00" arrival="3650.00" arrivalPos="36.59" duration="390.00" routeLength="1472.51" timeLoss="30.86"/>
    </personinfo>
    <personinfo id="410459897.22.1266" depart="1266.00" type="DEFAULT_PEDTYPE">
        <walk depart="1266.00" departPos="23.17" arrival="1267.00" arrivalPos="24.17" duration="1.00" routeLength="1.00" timeLoss="0.28" maxSpeed="1.39"/>
        <ride waitingTime="224.00" vehicle="bus_22:0.2" depart="1491.00" arrival="3723.00" arrivalPos="10.11" duration="2232.00" routeLength="6806.42" timeLoss="151.96"/>
    </personinfo>
    <personinfo id="410462103.22.2302" depart="2302.00" type="DEFAULT_PEDTYPE">
        <walk depart="2302.00" departPos="51.46" arrival="2303.00" arrivalPos="52.46" duration="1.00" routeLength="1.00" timeLoss="0.28" maxSpeed="1.39"/>
        <ride waitingTime="146.00" vehicle="bus_22:0.2" depart="2449.00" arrival="3723.00" arrivalPos="10.11" duration="1274.00" routeLength="4187.97" timeLoss="91.56"/>
    </personinfo>
    <personinfo id="410471030.22.505" depart="505.00" type="DEFAULT_PEDTYPE">
        <walk depart="505.00" departPos="18.18" arrival="506.00" arrivalPos="19.18" duration="1.00" routeLength="1.00" timeLoss="0.28" maxSpeed="1.39"/>
        <ride waitingTime="1877.00" vehicle="bus_22:0.0" depart="2383.00" arrival="3760.00" arrivalPos="10.26" duration="1377.00" routeLength="3625.44" timeLoss="98.83"/>
    </personinfo>
    <personinfo id="410480724.22.633" depart="633.00" type="DEFAULT_PEDTYPE">
        <walk depart="633.00" departPos="26.17" arrival="634.00" arrivalPos="27.17" duration="1.00" routeLength="1.00" timeLoss="0.28" maxSpeed="1.39"/>
        <ride waitingTime="2246.00" vehicle="bus_22:0.0" depart="2880.00" arrival="3761.00" arrivalPos="10.26" duration="881.00" routeLength="2034.22" timeLoss="52.90"/>
    </personinfo>
    <personinfo id="410465917.22.2074" depart="2074.00" type="DEFAULT_PEDTYPE">
        <walk depart="2074.00" departPos="21.70" arrival="2075.00" arrivalPos="22.70" duration="1.00" routeLength="1.00" timeLoss="0.28" maxSpeed="1.39"/>
        <ride waitingTime="1351.00" vehicle="bus_22:0.0" depart="3426.00" arrival="3761.00" arrivalPos="10.26" duration="335.00" routeLength="936.81" timeLoss="23.52"/>
    </personinfo>
    <personinfo id="410465917.22.2232" depart="2232.00" type="DEFAULT_PEDTYPE">
        <walk depart="2232.00" departPos="21.70" arrival="2233.00" arrivalPos="22.70" duration="1.00" routeLength="1.00" timeLoss="0.28" maxSpeed="1.39"/>
        <ride waitingTime="1193.00" vehicle="bus_22:0.0" depart="3426.00" arrival="3762.00" arrivalPos="10.26" duration="336.00" routeLength="936.81" timeLoss="23.52"/>
    </personinfo>
    <personinfo id="410465917.22.2343" depart="2343.00" type="DEFAULT_PEDTYPE">
        <walk depart="2343.00" departPos="21.70" arrival="2344.00" arrivalPos="22.70" duration="1.00" routeLength="1.00" timeLoss="0.28" maxSpeed="1.39"/>
        <ride waitingTime="1082.00" vehicle="bus_22:0.0" depart="3426.00" arrival="3762.00" arrivalPos="10.26" duration="336.00" routeLength="936.81" timeLoss="23.52"/>
    </personinfo>
    <personinfo id="410465917.22.3202" depart="3202.00" type="DEFAULT_PEDTYPE">
        <walk depart="3202.00" departPos="21.70" arrival="3203.00" arrivalPos="22.70" duration="1.00" routeLength="1.00" timeLoss="0.28" maxSpeed="1.39"/>
        <ride waitingTime="223.00" vehicle="bus_22:0.0" depart="3426.00" arrival="3763.00" arrivalPos="10.26" duration="337.00" routeLength="936.81" timeLoss="23.52"/>
    </personinfo>
    <personinfo id="410465915.22.482" depart="482.00" type="DEFAULT_PEDTYPE">
        <walk depart="482.00" departPos="138.08" arrival="593.00" arrivalPos="0.00" duration="111.00" routeLength="138.08" timeLoss="11.58" maxSpeed="1.39"/>
        <ride waitingTime="3042.00" vehicle="bus_22:0.0" depart="3635.00" arrival="3763.00" arrivalPos="10.26" duration="128.00" routeLength="457.73" timeLoss="11.37"/>
    </personinfo>
    <personinfo id="410462211.43.2635" depart="2635.00" type="DEFAULT_PEDTYPE">
        <walk depart="2635.00" departPos="18.63" arrival="2636.00" arrivalPos="19.63" duration="1.00" routeLength="1.00" timeLoss="0.28" maxSpeed="1.39"/>
        <ride waitingTime="123.00" vehicle="bus_43:0.2" depart="2759.00" arrival="3768.00" arrivalPos="108.29" duration="1009.00" routeLength="2843.47" timeLoss="69.54"/>
    </personinfo>
    <personinfo id="1849631331.43.2527" depart="2527.00" type="DEFAULT_PEDTYPE">
        <walk depart="2527.00" departPos="42.45" arrival="2528.00" arrivalPos="43.45" duration="1.00" routeLength="1.00" timeLoss="0.28" maxSpeed="1.39"/>
        <ride waitingTime="136.00" vehicle="bus_43:0.4" depart="2664.00" arrival="3800.00" arrivalPos="29.60" duration="1136.00" routeLength="4247.83" timeLoss="93.97"/>
    </personinfo>
    <personinfo id="1849631269.43.2643" depart="2643.00" type="DEFAULT_PEDTYPE">
        <walk depart="2643.00" departPos="160.44" arrival="2772.00" arrivalPos="0.00" duration="129.00" routeLength="160.44" timeLoss="13.48" maxSpeed="1.39"/>
        <ride waitingTime="458.00" vehicle="bus_43:0.4" depart="3230.00" arrival="3800.00" arrivalPos="29.60" duration="570.00" routeLength="2132.76" timeLoss="46.84"/>
    </personinfo>
    <personinfo id="410462103.22.1905" depart="1905.00" type="DEFAULT_PEDTYPE">
        <walk depart="1905.00" departPos="51.46" arrival="1906.00" arrivalPos="52.46" duration="1.00" routeLength="1.00" timeLoss="0.28" maxSpeed="1.39"/>
        <ride waitingTime="543.00" vehicle="bus_22:0.2" depart="2449.00" arrival="3839.00" arrivalPos="29.18" duration="1390.00" routeLength="4540.12" timeLoss="102.68"/>
    </personinfo>
    <personinfo id="410482491.43.1977" depart="1977.00" type="DEFAULT_PEDTYPE">
        <walk depart="1977.00" departPos="72.10" arrival="1978.00" arrivalPos="73.10" duration="1.00" routeLength="1.00" timeLoss="0.28" maxSpeed="1.39"/>
        <ride waitingTime="1376.00" vehicle="bus_22:0.2" depart="3354.00" arrival="3839.00" arrivalPos="29.18" duration="485.00" routeLength="1741.63" timeLoss="41.23"/>
    </personinfo>
    <personinfo id="410462291.43.2247" depart="2247.00" type="DEFAULT_PEDTYPE">
        <walk depart="2247.00" departPos="415.85" arrival="2578.00" arrivalPos="0.00" duration="331.00" routeLength="415.85" timeLoss="31.59" maxSpeed="1.39"/>
        <ride waitingTime="269.00" vehicle="bus_43:0.2" depart="2847.00" arrival="3998.00" arrivalPos="33.15" duration="1151.00" routeLength="3039.25" timeLoss="73.78"/>
    </personinfo>
    <personinfo id="410462293.43.1549" depart="1549.00" type="DEFAULT_PEDTYPE">
        <walk depart="1549.00" departPos="10.48" arrival="1550.00" arrivalPos="11.48" duration="1.00" routeLength="1.00" timeLoss="0.28" maxSpeed="1.39"/>
        <ride waitingTime="140.00" vehicle="bus_43:0.0" depart="1690.00" arrival="4020.00" arrivalPos="24.59" duration="2330.00" routeLength="4471.47" timeLoss="456.47"/>
    </personinfo>
    <personinfo id="410462103.22.2138" depart="2138.00" type="DEFAULT_PEDTYPE">
        <walk depart="2138.00" departPos="51.46" arrival="2139.00" arrivalPos="52.46" duration="1.00" routeLength="1.00" timeLoss="0.28" maxSpeed="1.39"/>
        <ride waitingTime="310.00" vehicle="bus_22:0.2" depart="2449.00" arrival="4035.00" arrivalPos="20.96" duration="1586.00" routeLength="5071.23" timeLoss="115.15"/>
    </personinfo>
    <personinfo id="410462103.22.832" depart="832.00" type="DEFAULT_PEDTYPE">
        <walk depart="832.00" departPos="51.46" arrival="833.00" arrivalPos="52.46" duration="1.00" routeLength="1.00" timeLoss="0.28" maxSpeed="1.39"/>
        <ride waitingTime="149.00" vehicle="bus_22:0.0" depart="982.00" arrival="4045.00" arrivalPos="80.51" duration="3063.00" routeLength="8889.62" timeLoss="312.94"/>
    </personinfo>
    <personinfo id="410464248.22.387" depart="387.00" type="DEFAULT_PEDTYPE">
        <walk depart="387.00" departPos="23.64" arrival="388.00" arrivalPos="24.64" duration="1.00" routeLength="1.00" timeLoss="0.28" maxSpeed="1.39"/>
        <ride waitingTime="2639.00" vehicle="bus_22:0.0" depart="3027.00" arrival="4046.00" arrivalPos="80.51" duration="1019.00" routeLength="2446.61" timeLoss="60.32"/>
    </personinfo>
    <personinfo id="410464248.22.2780" depart="2780.00" type="DEFAULT_PEDTYPE">
        <walk depart="2780.00" departPos="23.64" arrival="2781.00" arrivalPos="24.64" duration="1.00" routeLength="1.00" timeLoss="0.28" maxSpeed="1.39"/>
        <ride waitingTime="246.00" vehicle="bus_22:0.0" depart="3027.00" arrival="4046.00" arrivalPos="80.51" duration="1019.00" routeLength="2446.58" timeLoss="60.32"/>
    </personinfo>
    <personinfo id="410465916.22.49" depart="49.00" type="DEFAULT_PEDTYPE">
        <walk depart="49.00" departPos="28.40" arrival="50.00" arrivalPos="29.40" duration="1.00" routeLength="1.00" timeLoss="0.28" maxSpeed="1.39"/>
        <ride waitingTime="3174.00" vehicle="bus_22:0.0" depart="3224.00" arrival="4047.00" arrivalPos="80.51" duration="823.00" routeLength="2056.29" timeLoss="50.52"/>
    </personinfo>
    <personinfo id="410465917.22.856" depart="856.00" type="DEFAULT_PEDTYPE">
        <walk depart="856.00" departPos="21.70" arrival="857.00" arrivalPos="22.70" duration="1.00" routeLength="1.00" timeLoss="0.28" maxSpeed="1.39"/>
        <ride waitingTime="2569.00" vehicle="bus_22:0.0" depart="3426.00" arrival="4047.00" arrivalPos="80.51" duration="621.00" routeLength="1660.91" timeLoss="39.93"/>
    </personinfo>
    <personinfo id="410465917.22.1933" depart="1933.00" type="DEFAULT_PEDTYPE">
        <walk depart="1933.00" departPos="21.70" arrival="1934.00" arrivalPos="22.70" duration="1.00" routeLength="1.00" timeLoss="0.28" maxSpeed="1.39"/>
        <ride waitingTime="1492.00" vehicle="bus_22:0.0" depart="3426.00" arrival="4048.00" arrivalPos="80.51" duration="622.00" routeLength="1660.89" timeLoss="39.93"/>
    </personinfo>
    <personinfo id="410465917.22.2706" depart="2706.00" type="DEFAULT_PEDTYPE">
        <walk depart="2706.00" departPos="21.70" arrival="2707.00" arrivalPos="22.70" duration="1.00" routeLength="1.00" timeLoss="0.28" maxSpeed="1.39"/>
        <ride waitingTime="719.00" vehicle="bus_22:0.0" depart="3426.00" arrival="4048.00" arrivalPos="80.51" duration="622.00" routeLength="1660.89" timeLoss="39.93"/>