<?xml version="1.0" encoding="UTF-8"?>

<!-- generated on 2024-04-08 16:38:32 by Eclipse SUMO GUI Version 1.14.1
<configuration xmlns:xsi="http://www.w3.org/2001/XMLSchema-instance" xsi:noNamespaceSchemaLocation="http://sumo.dlr.de/xsd/sumoConfiguration.xsd">

    <input>
        <net-file value="singapore/singapore.net.xml"/>
        <route-files value="singapore/busFlows.rou.xml"/>
        <additional-files value="singapore/busstops.xml"/>
    </input>

    <output>
        <tripinfo-output value="tripinfo.xml"/>
    </output>

    <processing>
        <no-internal-links value="true"/>
    </processing>

    <traci_server>
        <remote-port value="57189"/>
    </traci_server>

</configuration>
-->

<tripinfos xmlns:xsi="http://www.w3.org/2001/XMLSchema-instance" xsi:noNamespaceSchemaLocation="http://sumo.dlr.de/xsd/tripinfo_file.xsd">
    <personinfo id="410459897.22.1384" depart="1384.00" type="DEFAULT_PEDTYPE">
        <walk depart="1384.00" departPos="23.17" arrival="1385.00" arrivalPos="24.17" duration="1.00" routeLength="1.00" timeLoss="0.28" maxSpeed="1.39"/>
        <ride waitingTime="107.00" vehicle="bus_22:0.2" depart="1492.00" arrival="1519.00" arrivalPos="35.20" duration="27.00" routeLength="91.54" timeLoss="4.69"/>
    </personinfo>
    <personinfo id="1849631331.43.1159" depart="1159.00" type="DEFAULT_PEDTYPE">
        <walk depart="1159.00" departPos="42.45" arrival="1160.00" arrivalPos="43.45" duration="1.00" routeLength="1.00" timeLoss="0.28" maxSpeed="1.39"/>
        <ride waitingTime="298.00" vehicle="bus_43:0.2" depart="1458.00" arrival="1559.00" arrivalPos="73.89" duration="101.00" routeLength="368.66" timeLoss="11.10"/>
    </personinfo>
    <personinfo id="410462103.22.535" depart="535.00" type="DEFAULT_PEDTYPE">
        <walk depart="535.00" departPos="11.46" arrival="536.00" arrivalPos="12.46" duration="1.00" routeLength="1.00" timeLoss="0.28" maxSpeed="1.39"/>
        <ride waitingTime="434.00" vehicle="bus_22:0.0" depart="970.00" arrival="1560.00" arrivalPos="36.76" duration="590.00" routeLength="2203.07" timeLoss="50.71"/>
    </personinfo>
    <personinfo id="1531005322.22.14" depart="14.00" type="DEFAULT_PEDTYPE">
        <walk depart="14.00" departPos="12.13" arrival="15.00" arrivalPos="13.13" duration="1.00" routeLength="1.00" timeLoss="0.28" maxSpeed="1.39"/>
        <ride waitingTime="1246.00" vehicle="bus_22:0.0" depart="1261.00" arrival="1560.00" arrivalPos="36.76" duration="299.00" routeLength="1125.96" timeLoss="24.40"/>
    </personinfo>
    <personinfo id="410462103.22.1022" depart="1022.00" type="DEFAULT_PEDTYPE">
        <walk depart="1022.00" departPos="11.46" arrival="1023.00" arrivalPos="12.46" duration="1.00" routeLength="1.00" timeLoss="0.28" maxSpeed="1.39"/>
        <ride waitingTime="551.00" vehicle="bus_22:0.1" depart="1574.00" arrival="1866.00" arrivalPos="24.58" duration="292.00" routeLength="1077.20" timeLoss="28.29"/>
    </personinfo>
    <personinfo id="410462211.43.675" depart="675.00" type="DEFAULT_PEDTYPE">
        <walk depart="675.00" departPos="18.63" arrival="676.00" arrivalPos="19.63" duration="1.00" routeLength="1.00" timeLoss="0.28" maxSpeed="1.39"/>
        <ride waitingTime="721.00" vehicle="bus_43:0.0" depart="1397.00" arrival="1920.00" arrivalPos="34.61" duration="523.00" routeLength="1917.77" timeLoss="49.28"/>
    </personinfo>
    <personinfo id="410460005.22.1396" depart="1396.00" type="DEFAULT_PEDTYPE">
        <walk depart="1396.00" departPos="284.34" arrival="1624.00" arrivalPos="0.00" duration="228.00" routeLength="284.34" timeLoss="23.28" maxSpeed="1.39"/>
        <ride waitingTime="178.00" vehicle="bus_22:0.3" depart="1802.00" arrival="1937.00" arrivalPos="11.35" duration="135.00" routeLength="501.90" timeLoss="12.60"/>
    </personinfo>
    <personinfo id="410462101.22.605" depart="605.00" type="DEFAULT_PEDTYPE">
        <walk depart="605.00" departPos="11.46" arrival="606.00" arrivalPos="12.46" duration="1.00" routeLength="1.00" timeLoss="0.28" maxSpeed="1.39"/>
        <ride waitingTime="364.00" vehicle="bus_22:0.0" depart="970.00" arrival="1978.00" arrivalPos="107.55" duration="1008.00" routeLength="3750.84" timeLoss="88.23"/>
    </personinfo>
    <personinfo id="410482570.43.58" depart="58.00" type="DEFAULT_PEDTYPE">
        <walk depart="58.00" departPos="91.56" arrival="59.00" arrivalPos="92.56" duration="1.00" routeLength="1.00" timeLoss="0.28" maxSpeed="1.39"/>
        <ride waitingTime="1920.00" vehicle="bus_22:0.0" depart="1979.00" arrival="2022.00" arrivalPos="263.29" duration="43.00" routeLength="155.79" timeLoss="5.03"/>
    </personinfo>
    <personinfo id="410460005.22.742" depart="742.00" type="DEFAULT_PEDTYPE">
        <walk depart="742.00" departPos="284.34" arrival="969.00" arrivalPos="0.00" duration="227.00" routeLength="284.34" timeLoss="22.28" maxSpeed="1.39"/>
        <ride waitingTime="233.00" vehicle="bus_22:0.2" depart="1202.00" arrival="2043.00" arrivalPos="24.01" duration="841.00" routeLength="3160.15" timeLoss="68.25"/>
    </personinfo>
    <personinfo id="410459897.22.1198" depart="1198.00" type="DEFAULT_PEDTYPE">
        <walk depart="1198.00" departPos="23.17" arrival="1199.00" arrivalPos="24.17" duration="1.00" routeLength="1.00" timeLoss="0.28" maxSpeed="1.39"/>
        <ride waitingTime="293.00" vehicle="bus_22:0.2" depart="1492.00" arrival="2043.00" arrivalPos="24.01" duration="551.00" routeLength="2076.31" timeLoss="43.60"/>
    </personinfo>
    <personinfo id="1531005322.43.1098" depart="1098.00" type="DEFAULT_PEDTYPE">
        <walk depart="1098.00" departPos="12.13" arrival="1099.00" arrivalPos="13.13" duration="1.00" routeLength="1.00" timeLoss="0.28" maxSpeed="1.39"/>
        <ride waitingTime="162.00" vehicle="bus_22:0.0" depart="1261.00" arrival="2109.00" arrivalPos="12.09" duration="848.00" routeLength="3147.82" timeLoss="75.32"/>
    </personinfo>
    <personinfo id="1849631273.43.512" depart="512.00" type="DEFAULT_PEDTYPE">
        <walk depart="512.00" departPos="413.46" arrival="842.00" arrivalPos="0.00" duration="330.00" routeLength="413.46" timeLoss="32.31" maxSpeed="1.39"/>
        <ride waitingTime="247.00" vehicle="bus_43:0.0" depart="1089.00" arrival="2165.00" arrivalPos="73.30" duration="1076.00" routeLength="3929.48" timeLoss="103.63"/>
    </personinfo>
    <personinfo id="410475114.22.897" depart="897.00" type="DEFAULT_PEDTYPE">
        <walk depart="897.00" departPos="84.99" arrival="898.00" arrivalPos="85.99" duration="1.00" routeLength="1.00" timeLoss="0.28" maxSpeed="1.39"/>
        <ride waitingTime="275.00" vehicle="bus_22:0.0" depart="1173.00" arrival="2207.00" arrivalPos="34.17" duration="1034.00" routeLength="3818.18" timeLoss="95.84"/>
    </personinfo>
    <personinfo id="410482564.22.295" depart="295.00" type="DEFAULT_PEDTYPE">
        <walk depart="295.00" departPos="87.68" arrival="296.00" arrivalPos="88.68" duration="1.00" routeLength="1.00" timeLoss="0.28" maxSpeed="1.39"/>
        <ride waitingTime="1609.00" vehicle="bus_22:0.0" depart="1905.00" arrival="2207.00" arrivalPos="34.17" duration="302.00" routeLength="1093.90" timeLoss="32.26"/>
    </personinfo>
    <personinfo id="410462103.22.1166" depart="1166.00" type="DEFAULT_PEDTYPE">
        <walk depart="1166.00" departPos="11.46" arrival="1167.00" arrivalPos="12.46" duration="1.00" routeLength="1.00" timeLoss="0.28" maxSpeed="1.39"/>
        <ride waitingTime="407.00" vehicle="bus_22:0.1" depart="1574.00" arrival="2217.00" arrivalPos="19.15" duration="643.00" routeLength="2398.99" timeLoss="55.91"/>
    </personinfo>
    <personinfo id="410462291.43.1102" depart="1102.00" type="DEFAULT_PEDTYPE">
        <walk depart="1102.00" departPos="415.85" arrival="1434.00" arrivalPos="0.00" duration="332.00" routeLength="415.85" timeLoss="32.59" maxSpeed="1.39"/>
        <ride waitingTime="50.00" vehicle="bus_43:0.0" depart="1484.00" arrival="2412.00" arrivalPos="100.98" duration="928.00" routeLength="3407.57" timeLoss="88.92"/>
    </personinfo>
    <personinfo id="410471030.22.1260" depart="1260.00" type="DEFAULT_PEDTYPE">
        <walk depart="1260.00" departPos="18.18" arrival="1261.00" arrivalPos="19.18" duration="1.00" routeLength="1.00" timeLoss="0.28" maxSpeed="1.39"/>
        <ride waitingTime="948.00" vehicle="bus_22:0.0" depart="2209.00" arrival="2446.00" arrivalPos="200.18" duration="237.00" routeLength="879.49" timeLoss="21.51"/>
    </personinfo>
    <personinfo id="410459904.22.1349" depart="1349.00" type="DEFAULT_PEDTYPE">
        <walk depart="1349.00" departPos="19.22" arrival="1350.00" arrivalPos="20.22" duration="1.00" routeLength="1.00" timeLoss="0.28" maxSpeed="1.39"/>
        <ride waitingTime="170.00" vehicle="bus_22:0.2" depart="1520.00" arrival="2468.00" arrivalPos="24.56" duration="948.00" routeLength="3563.54" timeLoss="74.87"/>
    </personinfo>
    <personinfo id="410462101.22.1528" depart="1528.00" type="DEFAULT_PEDTYPE">
        <walk depart="1528.00" departPos="11.46" arrival="1529.00" arrivalPos="12.46" duration="1.00" routeLength="1.00" timeLoss="0.28" maxSpeed="1.39"/>
        <ride waitingTime="45.00" vehicle="bus_22:0.1" depart="1574.00" arrival="2575.00" arrivalPos="107.54" duration="1001.00" routeLength="3750.85" timeLoss="83.20"/>
    </personinfo>
    <personinfo id="410480722.22.2336" depart="2336.00" type="DEFAULT_PEDTYPE">
        <walk depart="2336.00" departPos="184.20" arrival="2337.00" arrivalPos="185.20" duration="1.00" routeLength="1.00" timeLoss="0.28" maxSpeed="1.39"/>
        <ride waitingTime="110.00" vehicle="bus_22:0.0" depart="2447.00" arrival="2606.00" arrivalPos="149.88" duration="159.00" routeLength="592.26" timeLoss="14.56"/>
    </personinfo>
    <personinfo id="410462103.22.1772" depart="1772.00" type="DEFAULT_PEDTYPE">
        <walk depart="1772.00" departPos="11.46" arrival="1773.00" arrivalPos="12.46" duration="1.00" routeLength="1.00" timeLoss="0.28" maxSpeed="1.39"/>
        <ride waitingTime="410.00" vehicle="bus_22:0.2" depart="2183.00" arrival="2646.00" arrivalPos="181.35" duration="463.00" routeLength="1397.73" timeLoss="31.11"/>
    </personinfo>
    <personinfo id="410459904.22.1870" depart="1870.00" type="DEFAULT_PEDTYPE">
        <walk depart="1870.00" departPos="19.22" arrival="1871.00" arrivalPos="20.22" duration="1.00" routeLength="1.00" timeLoss="0.28" maxSpeed="1.39"/>
        <ride waitingTime="251.00" vehicle="bus_22:0.3" depart="2122.00" arrival="2651.00" arrivalPos="24.01" duration="529.00" routeLength="1984.79" timeLoss="43.93"/>
    </personinfo>
    <personinfo id="410462211.43.1058" depart="1058.00" type="DEFAULT_PEDTYPE">
        <walk depart="1058.00" departPos="18.63" arrival="1059.00" arrivalPos="19.63" duration="1.00" routeLength="1.00" timeLoss="0.28" maxSpeed="1.39"/>
        <ride waitingTime="338.00" vehicle="bus_43:0.0" depart="1397.00" arrival="2662.00" arrivalPos="181.35" duration="1265.00" routeLength="4361.32" timeLoss="188.32"/>
    </personinfo>
    <personinfo id="410462291.43.1204" depart="1204.00" type="DEFAULT_PEDTYPE">
        <walk depart="1204.00" departPos="415.85" arrival="1535.00" arrivalPos="0.00" duration="331.00" routeLength="415.85" timeLoss="31.59" maxSpeed="1.39"/>
        <ride waitingTime="548.00" vehicle="bus_43:0.1" depart="2083.00" arrival="2699.00" arrivalPos="45.58" duration="616.00" routeLength="2283.03" timeLoss="56.20"/>
    </personinfo>
    <personinfo id="410480724.22.271" depart="271.00" type="DEFAULT_PEDTYPE">
        <walk depart="271.00" departPos="26.17" arrival="272.00" arrivalPos="27.17" duration="1.00" routeLength="1.00" timeLoss="0.28" maxSpeed="1.39"/>
        <ride waitingTime="2373.00" vehicle="bus_22:0.0" depart="2645.00" arrival="2730.00" arrivalPos="39.64" duration="85.00" routeLength="311.74" timeLoss="8.98"/>
    </personinfo>
    <personinfo id="410462103.22.133" depart="133.00" type="DEFAULT_PEDTYPE">
        <walk depart="133.00" departPos="11.46" arrival="134.00" arrivalPos="12.46" duration="1.00" routeLength="1.00" timeLoss="0.28" maxSpeed="1.39"/>
        <ride waitingTime="836.00" vehicle="bus_22:0.0" depart="970.00" arrival="2838.00" arrivalPos="44.40" duration="1868.00" routeLength="6873.36" timeLoss="176.72"/>
    </personinfo>
    <personinfo id="410462293.43.1335" depart="1335.00" type="DEFAULT_PEDTYPE">
        <walk depart="1335.00" departPos="10.48" arrival="1336.00" arrivalPos="11.48" duration="1.00" routeLength="1.00" timeLoss="0.28" maxSpeed="1.39"/>
        <ride waitingTime="543.00" vehicle="bus_43:0.1" depart="1879.00" arrival="2908.00" arrivalPos="38.15" duration="1029.00" routeLength="3785.90" timeLoss="98.68"/>
    </personinfo>
    <personinfo id="1849631273.43.922" depart="922.00" type="DEFAULT_PEDTYPE">
        <walk depart="922.00" departPos="413.46" arrival="1252.00" arrivalPos="0.00" duration="330.00" routeLength="413.46" timeLoss="32.31" maxSpeed="1.39"/>
        <ride waitingTime="433.00" vehicle="bus_43:0.1" depart="1685.00" arrival="3008.00" arrivalPos="100.99" duration="1323.00" routeLength="4852.06" timeLoss="128.66"/>
    </personinfo>
    <personinfo id="410482572.43.2263" depart="2263.00" type="DEFAULT_PEDTYPE">
        <walk depart="2263.00" departPos="20.76" arrival="2264.00" arrivalPos="21.76" duration="1.00" routeLength="1.00" timeLoss="0.28" maxSpeed="1.39"/>
        <ride waitingTime="615.00" vehicle="bus_43:0.0" depart="2879.00" arrival="3049.00" arrivalPos="88.07" duration="170.00" routeLength="635.38" timeLoss="15.05"/>
    </personinfo>
    <personinfo id="410462101.22.1841" depart="1841.00" type="DEFAULT_PEDTYPE">
        <walk depart="1841.00" departPos="11.46" arrival="1842.00" arrivalPos="12.46" duration="1.00" routeLength="1.00" timeLoss="0.28" maxSpeed="1.39"/>
        <ride waitingTime="341.00" vehicle="bus_22:0.2" depart="2183.00" arrival="3054.00" arrivalPos="164.79" duration="871.00" routeLength="2915.16" timeLoss="62.02"/>
    </personinfo>
    <personinfo id="410480716.22.875" depart="875.00" type="DEFAULT_PEDTYPE">
        <walk depart="875.00" departPos="9.98" arrival="876.00" arrivalPos="10.98" duration="1.00" routeLength="1.00" timeLoss="0.28" maxSpeed="1.39"/>
        <ride waitingTime="1476.00" vehicle="bus_22:0.0" depart="2352.00" arrival="3080.00" arrivalPos="11.72" duration="728.00" routeLength="2632.60" timeLoss="75.96"/>
    </personinfo>
    <personinfo id="410465916.22.369" depart="369.00" type="DEFAULT_PEDTYPE">
        <walk depart="369.00" departPos="28.40" arrival="370.00" arrivalPos="29.40" duration="1.00" routeLength="1.00" timeLoss="0.28" maxSpeed="1.39"/>
        <ride waitingTime="2469.00" vehicle="bus_22:0.0" depart="2839.00" arrival="3080.00" arrivalPos="11.72" duration="241.00" routeLength="870.42" timeLoss="23.73"/>
    </personinfo>
    <personinfo id="410465917.22.275" depart="275.00" type="DEFAULT_PEDTYPE">
        <walk depart="275.00" departPos="21.70" arrival="276.00" arrivalPos="22.70" duration="1.00" routeLength="1.00" timeLoss="0.28" maxSpeed="1.39"/>
        <ride waitingTime="2674.00" vehicle="bus_22:0.0" depart="2950.00" arrival="3081.00" arrivalPos="11.72" duration="131.00" routeLength="475.14" timeLoss="12.13"/>
    </personinfo>
    <personinfo id="410475114.22.1764" depart="1764.00" type="DEFAULT_PEDTYPE">
        <walk depart="1764.00" departPos="84.99" arrival="1765.00" arrivalPos="85.99" duration="1.00" routeLength="1.00" timeLoss="0.28" maxSpeed="1.39"/>
        <ride waitingTime="14.00" vehicle="bus_22:0.1" depart="1779.00" arrival="3189.00" arrivalPos="149.88" duration="1410.00" routeLength="5289.89" timeLoss="115.83"/>
    </personinfo>
    <personinfo id="410482568.22.1834" depart="1834.00" type="DEFAULT_PEDTYPE">
        <walk depart="1834.00" departPos="3.17" arrival="1835.00" arrivalPos="4.17" duration="1.00" routeLength="1.00" timeLoss="0.28" maxSpeed="1.39"/>
        <ride waitingTime="383.00" vehicle="bus_22:0.1" depart="2218.00" arrival="3189.00" arrivalPos="149.88" duration="971.00" routeLength="3652.78" timeLoss="78.11"/>
    </personinfo>
    <personinfo id="410465917.22.1256" depart="1256.00" type="DEFAULT_PEDTYPE">
        <walk depart="1256.00" departPos="21.70" arrival="1257.00" arrivalPos="22.70" duration="1.00" routeLength="1.00" timeLoss="0.28" maxSpeed="1.39"/>
        <ride waitingTime="1693.00" vehicle="bus_22:0.0" depart="2950.00" arrival="3207.00" arrivalPos="12.27" duration="257.00" routeLength="933.88" timeLoss="25.25"/>
    </personinfo>
    <personinfo id="410460005.22.455" depart="455.00" type="DEFAULT_PEDTYPE">
        <walk depart="455.00" departPos="284.34" arrival="688.00" arrivalPos="0.00" duration="233.00" routeLength="284.34" timeLoss="28.28" maxSpeed="1.39"/>
        <ride waitingTime="514.00" vehicle="bus_22:0.2" depart="1202.00" arrival="3207.00" arrivalPos="103.67" duration="2005.00" routeLength="7147.94" timeLoss="156.67"/>
    </personinfo>
    <personinfo id="410465917.22.2156" depart="2156.00" type="DEFAULT_PEDTYPE">
        <walk depart="2156.00" departPos="21.70" arrival="2157.00" arrivalPos="22.70" duration="1.00" routeLength="1.00" timeLoss="0.28" maxSpeed="1.39"/>
        <ride waitingTime="793.00" vehicle="bus_22:0.0" depart="2950.00" arrival="3208.00" arrivalPos="12.27" duration="258.00" routeLength="933.84" timeLoss="25.25"/>
    </personinfo>
    <personinfo id="410465915.22.1948" depart="1948.00" type="DEFAULT_PEDTYPE">
        <walk depart="1948.00" departPos="138.08" arrival="2059.00" arrivalPos="0.00" duration="111.00" routeLength="138.08" timeLoss="11.58" maxSpeed="1.39"/>
        <ride waitingTime="1023.00" vehicle="bus_22:0.0" depart="3082.00" arrival="3208.00" arrivalPos="12.27" duration="126.00" routeLength="458.76" timeLoss="13.12"/>
    </personinfo>
    <personinfo id="410465915.22.2301" depart="2301.00" type="DEFAULT_PEDTYPE">
        <walk depart="2301.00" departPos="138.08" arrival="2411.00" arrivalPos="0.00" duration="110.00" routeLength="138.08" timeLoss="10.58" maxSpeed="1.39"/>
        <ride waitingTime="671.00" vehicle="bus_22:0.0" depart="3082.00" arrival="3209.00" arrivalPos="12.27" duration="127.00" routeLength="458.76" timeLoss="13.12"/>
    </personinfo>
    <personinfo id="410465915.22.2783" depart="2783.00" type="DEFAULT_PEDTYPE">
        <walk depart="2783.00" departPos="138.08" arrival="2895.00" arrivalPos="0.00" duration="112.00" routeLength="138.08" timeLoss="12.58" maxSpeed="1.39"/>
        <ride waitingTime="187.00" vehicle="bus_22:0.0" depart="3082.00" arrival="3209.00" arrivalPos="12.27" duration="127.00" routeLength="458.74" timeLoss="13.12"/>
    </personinfo>
    <personinfo id="410475114.43.2094" depart="2094.00" type="DEFAULT_PEDTYPE">
        <walk depart="2094.00" departPos="84.99" arrival="2095.00" arrivalPos="85.99" duration="1.00" routeLength="1.00" timeLoss="0.28" maxSpeed="1.39"/>
        <ride waitingTime="318.00" vehicle="bus_43:0.0" depart="2413.00" arrival="3224.00" arrivalPos="103.66" duration="811.00" routeLength="2724.33" timeLoss="140.59"/>
    </personinfo>
    <personinfo id="410462266.43.1641" depart="1641.00" type="DEFAULT_PEDTYPE">
        <walk depart="1641.00" departPos="50.19" arrival="1642.00" arrivalPos="51.19" duration="1.00" routeLength="1.00" timeLoss="0.28" maxSpeed="1.39"/>
        <ride waitingTime="203.00" vehicle="bus_43:0.1" depart="1845.00" arrival="3248.00" arrivalPos="18.84" duration="1403.00" routeLength="5139.53" timeLoss="136.57"/>
    </personinfo>
    <personinfo id="410462293.43.1408" depart="1408.00" type="DEFAULT_PEDTYPE">
        <walk depart="1408.00" departPos="10.48" arrival="1409.00" arrivalPos="11.48" duration="1.00" routeLength="1.00" timeLoss="0.28" maxSpeed="1.39"/>
        <ride waitingTime="470.00" vehicle="bus_43:0.1" depart="1879.00" arrival="3248.00" arrivalPos="18.84" duration="1369.00" routeLength="5031.49" timeLoss="130.90"/>
    </personinfo>
    <personinfo id="410459904.22.2581" depart="2581.00" type="DEFAULT_PEDTYPE">
        <walk depart="2581.00" departPos="19.22" arrival="2582.00" arrivalPos="20.22" duration="1.00" routeLength="1.00" timeLoss="0.28" maxSpeed="1.39"/>
        <ride waitingTime="138.00" vehicle="bus_22:0.4" depart="2720.00" arrival="3252.00" arrivalPos="24.00" duration="532.00" routeLength="1984.76" timeLoss="45.94"/>
    </personinfo>
    <personinfo id="410459651.22.2946" depart="2946.00" type="DEFAULT_PEDTYPE">
        <walk depart="2946.00" departPos="15.18" arrival="2947.00" arrivalPos="16.18" duration="1.00" routeLength="1.00" timeLoss="0.28" maxSpeed="1.39"/>
        <ride waitingTime="83.00" vehicle="bus_22:0.4" depart="3030.00" arrival="3252.00" arrivalPos="24.00" duration="222.00" routeLength="828.99" timeLoss="19.83"/>
    </personinfo>
    <personinfo id="410459901.22.2113" depart="2113.00" type="DEFAULT_PEDTYPE">
        <walk depart="2113.00" departPos="553.15" arrival="2563.00" arrivalPos="0.00" duration="450.00" routeLength="553.15" timeLoss="51.73" maxSpeed="1.39"/>
        <ride waitingTime="575.00" vehicle="bus_22:0.5" depart="3138.00" arrival="3294.00" arrivalPos="39.16" duration="156.00" routeLength="582.00" timeLoss="14.06"/>
    </personinfo>
    <personinfo id="410462211.43.2461" depart="2461.00" type="DEFAULT_PEDTYPE">
        <walk depart="2461.00" departPos="18.63" arrival="2462.00" arrivalPos="19.63" duration="1.00" routeLength="1.00" timeLoss="0.28" maxSpeed="1.39"/>
        <ride waitingTime="138.00" vehicle="bus_43:0.2" depart="2600.00" arrival="3310.00" arrivalPos="45.59" duration="710.00" routeLength="2600.95" timeLoss="69.69"/>
    </personinfo>
    <personinfo id="410462103.22.2001" depart="2001.00" type="DEFAULT_PEDTYPE">
        <walk depart="2001.00" departPos="11.46" arrival="2002.00" arrivalPos="12.46" duration="1.00" routeLength="1.00" timeLoss="0.28" maxSpeed="1.39"/>
        <ride waitingTime="181.00" vehicle="bus_22:0.2" depart="2183.00" arrival="3326.00" arrivalPos="263.31" duration="1143.00" routeLength="3906.60" timeLoss="88.23"/>
    </personinfo>
    <personinfo id="410462211.43.2263" depart="2263.00" type="DEFAULT_PEDTYPE">
        <walk depart="2263.00" departPos="18.63" arrival="2264.00" arrivalPos="19.63" duration="1.00" routeLength="1.00" timeLoss="0.28" maxSpeed="1.39"/>
        <ride waitingTime="336.00" vehicle="bus_43:0.2" depart="2600.00" arrival="3367.00" arrivalPos="73.28" duration="767.00" routeLength="2802.89" timeLoss="76.44"/>
    </personinfo>
    <personinfo id="410462291.43.2030" depart="2030.00" type="DEFAULT_PEDTYPE">
        <walk depart="2030.00" departPos="415.85" arrival="2364.00" arrivalPos="0.00" duration="334.00" routeLength="415.85" timeLoss="34.59" maxSpeed="1.39"/>
        <ride waitingTime="325.00" vehicle="bus_43:0.2" depart="2689.00" arrival="3368.00" arrivalPos="73.28" duration="679.00" routeLength="2485.01" timeLoss="66.97"/>
    </personinfo>
    <personinfo id="410482520.43.3113" depart="3113.00" type="DEFAULT_PEDTYPE">
        <walk depart="3113.00" departPos="2.85" arrival="3114.00" arrivalPos="3.85" duration="1.00" routeLength="1.00" timeLoss="0.28" maxSpeed="1.39"/>
        <ride waitingTime="118.00" vehicle="bus_22:0.3" depart="3232.00" arrival="3382.00" arrivalPos="36.73" duration="150.00" routeLength="560.40" timeLoss="13.33"/>
    </personinfo>
    <personinfo id="410460005.22.1882" depart="1882.00" type="DEFAULT_PEDTYPE">
        <walk depart="1882.00" departPos="284.34" arrival="2111.00" arrivalPos="0.00" duration="229.00" routeLength="284.34" timeLoss="24.28" maxSpeed="1.39"/>
        <ride waitingTime="291.00" vehicle="bus_22:0.4" depart="2402.00" arrival="3390.00" arrivalPos="27.45" duration="988.00" routeLength="3661.72" timeLoss="87.93"/>
    </personinfo>
    <personinfo id="410459651.22.2562" depart="2562.00" type="DEFAULT_PEDTYPE">
        <walk depart="2562.00" departPos="15.18" arrival="2563.00" arrivalPos="16.18" duration="1.00" routeLength="1.00" timeLoss="0.28" maxSpeed="1.39"/>
        <ride waitingTime="467.00" vehicle="bus_22:0.4" depart="3030.00" arrival="3391.00" arrivalPos="27.45" duration="361.00" routeLength="1330.58" timeLoss="33.50"/>
    </personinfo>
    <personinfo id="410486991.43.1829" depart="1829.00" type="DEFAULT_PEDTYPE">
        <walk depart="1829.00" departPos="194.33" arrival="1830.00" arrivalPos="195.33" duration="1.00" routeLength="1.00" timeLoss="0.28" maxSpeed="1.39"/>
        <ride waitingTime="452.00" vehicle="bus_43:0.1" depart="2282.00" arrival="3401.00" arrivalPos="36.75" duration="1119.00" routeLength="4113.48" timeLoss="106.80"/>
    </personinfo>
    <personinfo id="410465917.22.536" depart="536.00" type="DEFAULT_PEDTYPE">
        <walk depart="536.00" departPos="21.70" arrival="537.00" arrivalPos="22.70" duration="1.00" routeLength="1.00" timeLoss="0.28" maxSpeed="1.39"/>
        <ride waitingTime="2413.00" vehicle="bus_22:0.0" depart="2950.00" arrival="3406.00" arrivalPos="85.51" duration="456.00" routeLength="1659.42" timeLoss="41.30"/>
    </personinfo>
    <personinfo id="410465915.22.2472" depart="2472.00" type="DEFAULT_PEDTYPE">
        <walk depart="2472.00" departPos="138.08" arrival="2583.00" arrivalPos="0.00" duration="111.00" routeLength="138.08" timeLoss="11.58" maxSpeed="1.39"/>
        <ride waitingTime="499.00" vehicle="bus_22:0.0" depart="3082.00" arrival="3406.00" arrivalPos="85.51" duration="324.00" routeLength="1184.28" timeLoss="29.18"/>
    </personinfo>
    <personinfo id="410462762.22.1398" depart="1398.00" type="DEFAULT_PEDTYPE">
        <walk depart="1398.00" departPos="651.30" arrival="1921.00" arrivalPos="0.00" duration="523.00" routeLength="651.30" timeLoss="54.06" maxSpeed="1.39"/>
        <ride waitingTime="1290.00" vehicle="bus_22:0.0" depart="3211.00" arrival="3407.00" arrivalPos="85.51" duration="196.00" routeLength="725.56" timeLoss="16.06"/>
    </personinfo>
    <personinfo id="1849631273.43.563" depart="563.00" type="DEFAULT_PEDTYPE">
        <walk depart="563.00" departPos="413.46" arrival="893.00" arrivalPos="0.00" duration="330.00" routeLength="413.46" timeLoss="32.31" maxSpeed="1.39"/>
        <ride waitingTime="196.00" vehicle="bus_43:0.0" depart="1089.00" arrival="3427.00" arrivalPos="12.12" duration="2338.00" routeLength="8315.11" timeLoss="286.06"/>
    </personinfo>
    <personinfo id="410462266.43.801" depart="801.00" type="DEFAULT_PEDTYPE">
        <walk depart="801.00" departPos="50.19" arrival="802.00" arrivalPos="51.19" duration="1.00" routeLength="1.00" timeLoss="0.28" maxSpeed="1.39"/>
        <ride waitingTime="446.00" vehicle="bus_43:0.0" depart="1248.00" arrival="3427.00" arrivalPos="12.12" duration="2179.00" routeLength="7721.74" timeLoss="272.77"/>
    </personinfo>
    <personinfo id="410486955.43.407" depart="407.00" type="DEFAULT_PEDTYPE">
        <walk depart="407.00" departPos="49.88" arrival="408.00" arrivalPos="50.88" duration="1.00" routeLength="1.00" timeLoss="0.28" maxSpeed="1.39"/>
        <ride waitingTime="1402.00" vehicle="bus_43:0.0" depart="1810.00" arrival="3428.00" arrivalPos="12.12" duration="1618.00" routeLength="5678.26" timeLoss="219.16"/>
    </personinfo>
    <personinfo id="410486969.43.97" depart="97.00" type="DEFAULT_PEDTYPE">
        <walk depart="97.00" departPos="0.12" arrival="98.00" arrivalPos="1.12" duration="1.00" routeLength="1.00" timeLoss="0.28" maxSpeed="1.39"/>
        <ride waitingTime="1894.00" vehicle="bus_43:0.0" depart="1992.00" arrival="3428.00" arrivalPos="12.12" duration="1436.00" routeLength="5020.17" timeLoss="199.66"/>
    </personinfo>
    <personinfo id="410482572.43.2655" depart="2655.00" type="DEFAULT_PEDTYPE">
        <walk depart="2655.00" departPos="20.76" arrival="2656.00" arrivalPos="21.76" duration="1.00" routeLength="1.00" timeLoss="0.28" maxSpeed="1.39"/>
        <ride waitingTime="223.00" vehicle="bus_43:0.0" depart="2879.00" arrival="3429.00" arrivalPos="12.12" duration="550.00" routeLength="2021.89" timeLoss="51.92"/>
    </personinfo>
    <personinfo id="410482570.22.2680" depart="2680.00" type="DEFAULT_PEDTYPE">
        <walk depart="2680.00" departPos="91.56" arrival="2681.00" arrivalPos="92.56" duration="1.00" routeLength="1.00" timeLoss="0.28" maxSpeed="1.39"/>
        <ride waitingTime="601.00" vehicle="bus_22:0.2" depart="3282.00" arrival="3508.00" arrivalPos="34.18" duration="226.00" routeLength="829.20" timeLoss="22.77"/>
    </personinfo>
    <personinfo id="410482570.22.2857" depart="2857.00" type="DEFAULT_PEDTYPE">
        <walk depart="2857.00" departPos="91.56" arrival="2858.00" arrivalPos="92.56" duration="1.00" routeLength="1.00" timeLoss="0.28" maxSpeed="1.39"/>
        <ride waitingTime="424.00" vehicle="bus_22:0.2" depart="3282.00" arrival="3508.00" arrivalPos="34.18" duration="226.00" routeLength="829.20" timeLoss="22.77"/>
    </personinfo>
    <personinfo id="410462211.43.1220" depart="1220.00" type="DEFAULT_PEDTYPE">
        <walk depart="1220.00" departPos="18.63" arrival="1221.00" arrivalPos="19.63" duration="1.00" routeLength="1.00" timeLoss="0.28" maxSpeed="1.39"/>
        <ride waitingTime="176.00" vehicle="bus_43:0.0" depart="1397.00" arrival="3533.00" arrivalPos="34.18" duration="2136.00" routeLength="7543.63" timeLoss="274.21"/>
    </personinfo>
    <personinfo id="410486991.43.1228" depart="1228.00" type="DEFAULT_PEDTYPE">
        <walk depart="1228.00" departPos="194.33" arrival="1229.00" arrivalPos="195.33" duration="1.00" routeLength="1.00" timeLoss="0.28" maxSpeed="1.39"/>
        <ride waitingTime="455.00" vehicle="bus_43:0.0" depart="1684.00" arrival="3533.00" arrivalPos="34.18" duration="1849.00" routeLength="6490.47" timeLoss="248.07"/>
    </personinfo>
    <personinfo id="410486991.43.1619" depart="1619.00" type="DEFAULT_PEDTYPE">
        <walk depart="1619.00" departPos="194.33" arrival="1620.00" arrivalPos="195.33" duration="1.00" routeLength="1.00" timeLoss="0.28" maxSpeed="1.39"/>
        <ride waitingTime="64.00" vehicle="bus_43:0.0" depart="1684.00" arrival="3534.00" arrivalPos="34.18" duration="1850.00" routeLength="6490.47" timeLoss="248.07"/>
    </personinfo>