<?xml version="1.0" encoding="UTF-8"?>

<!-- generated on 2024-06-13 00:27:59 by Eclipse SUMO GUI Version 1.14.1
<configuration xmlns:xsi="http://www.w3.org/2001/XMLSchema-instance" xsi:noNamespaceSchemaLocation="http://sumo.dlr.de/xsd/sumoConfiguration.xsd">

    <input>
        <net-file value="wang2020/sumo/ring.net.xml"/>
        <additional-files value="wang2020/sumo/ring.add.xml,wang2020/sumo/persons.add.xml"/>
    </input>

    <output>
        <tripinfo-output value="tripinfo.xml"/>
    </output>

    <processing>
        <no-internal-links value="false"/>
        <lanechange.overtake-right value="true"/>
    </processing>

    <report>
        <no-warnings value="true"/>
    </report>

    <traci_server>
        <remote-port value="52619"/>
    </traci_server>

</configuration>
-->

<tripinfos xmlns:xsi="http://www.w3.org/2001/XMLSchema-instance" xsi:noNamespaceSchemaLocation="http://sumo.dlr.de/xsd/tripinfo_file.xsd">
    <personinfo id="p24" depart="0.00" type="DEFAULT_PEDTYPE">
        <walk depart="0.00" departPos="221.00" arrival="8.00" arrivalPos="226.67" duration="8.00" routeLength="5.67" timeLoss="3.41" maxSpeed="1.24"/>
        <ride waitingTime="16.00" vehicle="bus.5" depart="24.00" arrival="60.00" arrivalPos="231.67" duration="36.00" routeLength="443.33" timeLoss="4.41"/>
        <walk depart="60.00" departPos="231.67" arrival="75.00" arrivalPos="250.00" duration="15.00" routeLength="18.33" timeLoss="1.80" maxSpeed="1.39"/>
    </personinfo>
    <personinfo id="p26" depart="0.00" type="DEFAULT_PEDTYPE">
        <walk depart="0.00" departPos="221.00" arrival="10.00" arrivalPos="226.67" duration="10.00" routeLength="5.67" timeLoss="5.32" maxSpeed="1.21"/>
        <ride waitingTime="14.00" vehicle="bus.5" depart="24.00" arrival="60.00" arrivalPos="231.67" duration="36.00" routeLength="443.33" timeLoss="4.41"/>
        <walk depart="60.00" departPos="231.67" arrival="76.00" arrivalPos="250.00" duration="16.00" routeLength="18.33" timeLoss="2.80" maxSpeed="1.39"/>
    </personinfo>
    <personinfo id="B46" depart="0.00" type="DEFAULT_PEDTYPE">
        <walk depart="0.00" departPos="221.00" arrival="7.00" arrivalPos="226.67" duration="7.00" routeLength="5.67" timeLoss="2.54" maxSpeed="1.27"/>
        <ride waitingTime="19.00" vehicle="busB.4" depart="26.00" arrival="68.00" arrivalPos="231.67" duration="42.00" routeLength="443.34" timeLoss="4.08"/>
        <walk depart="68.00" departPos="231.67" arrival="83.00" arrivalPos="250.00" duration="15.00" routeLength="18.33" timeLoss="1.80" maxSpeed="1.39"/>
    </personinfo>
    <personinfo id="B27" depart="0.00" type="DEFAULT_PEDTYPE">
        <walk depart="0.00" departPos="221.00" arrival="10.00" arrivalPos="226.67" duration="10.00" routeLength="5.67" timeLoss="5.40" maxSpeed="1.23"/>
        <ride waitingTime="16.00" vehicle="busB.5" depart="26.00" arrival="93.00" arrivalPos="231.67" duration="67.00" routeLength="883.65" timeLoss="3.38"/>
        <walk depart="93.00" departPos="231.67" arrival="108.00" arrivalPos="250.00" duration="15.00" routeLength="18.33" timeLoss="1.80" maxSpeed="1.39"/>
    </personinfo>
    <personinfo id="p67" depart="0.00" type="DEFAULT_PEDTYPE">
        <walk depart="0.00" departPos="221.00" arrival="9.00" arrivalPos="226.67" duration="9.00" routeLength="5.67" timeLoss="4.50" maxSpeed="1.26"/>
        <ride waitingTime="16.00" vehicle="bus.3" depart="25.00" arrival="117.00" arrivalPos="231.67" duration="92.00" routeLength="1330.00" timeLoss="7.22"/>
        <walk depart="117.00" departPos="231.67" arrival="132.00" arrivalPos="250.00" duration="15.00" routeLength="18.33" timeLoss="1.80" maxSpeed="1.39"/>
    </personinfo>
    <personinfo id="BStop3.0" depart="15.93" type="DEFAULT_PEDTYPE">
        <walk depart="16.00" departPos="200.00" arrival="39.00" arrivalPos="226.67" duration="23.00" routeLength="26.67" timeLoss="2.25" maxSpeed="1.29"/>
        <ride waitingTime="46.00" vehicle="busB.0" depart="85.00" arrival="127.00" arrivalPos="231.67" duration="42.00" routeLength="442.17" timeLoss="4.17"/>
        <walk depart="127.00" departPos="231.67" arrival="142.00" arrivalPos="250.00" duration="15.00" routeLength="18.33" timeLoss="1.80" maxSpeed="1.39"/>
    </personinfo>
    <personinfo id="B70" depart="0.00" type="DEFAULT_PEDTYPE">
        <walk depart="0.00" departPos="221.00" arrival="10.00" arrivalPos="226.67" duration="10.00" routeLength="5.67" timeLoss="5.80" maxSpeed="1.35"/>
        <ride waitingTime="17.00" vehicle="busB.3" depart="27.00" arrival="156.00" arrivalPos="231.67" duration="129.00" routeLength="1771.48" timeLoss="5.60"/>
        <walk depart="156.00" departPos="231.67" arrival="171.00" arrivalPos="250.00" duration="15.00" routeLength="18.33" timeLoss="1.80" maxSpeed="1.39"/>
    </personinfo>
    <personinfo id="BStop7.1" depart="0.74" type="DEFAULT_PEDTYPE">
        <walk depart="1.00" departPos="200.00" arrival="22.00" arrivalPos="226.67" duration="21.00" routeLength="26.67" timeLoss="2.48" maxSpeed="1.44"/>
        <ride waitingTime="5.00" vehicle="busB.3" depart="27.00" arrival="157.00" arrivalPos="231.67" duration="130.00" routeLength="1771.48" timeLoss="5.60"/>
        <walk depart="157.00" departPos="231.67" arrival="172.00" arrivalPos="250.00" duration="15.00" routeLength="18.33" timeLoss="1.80" maxSpeed="1.39"/>
    </personinfo>
    <personinfo id="B47" depart="0.00" type="DEFAULT_PEDTYPE">
        <walk depart="0.00" departPos="221.00" arrival="9.00" arrivalPos="226.67" duration="9.00" routeLength="5.67" timeLoss="4.94" maxSpeed="1.39"/>
        <ride waitingTime="17.00" vehicle="busB.4" depart="26.00" arrival="181.00" arrivalPos="231.67" duration="155.00" routeLength="1770.33" timeLoss="11.55"/>
        <walk depart="181.00" departPos="231.67" arrival="196.00" arrivalPos="250.00" duration="15.00" routeLength="18.33" timeLoss="1.80" maxSpeed="1.39"/>
    </personinfo>
    <personinfo id="B49" depart="0.00" type="DEFAULT_PEDTYPE">
        <walk depart="0.00" departPos="221.00" arrival="10.00" arrivalPos="226.67" duration="10.00" routeLength="5.67" timeLoss="5.85" maxSpeed="1.37"/>
        <ride waitingTime="16.00" vehicle="busB.4" depart="26.00" arrival="182.00" arrivalPos="231.67" duration="156.00" routeLength="1770.33" timeLoss="11.55"/>
        <walk depart="182.00" departPos="231.67" arrival="197.00" arrivalPos="250.00" duration="15.00" routeLength="18.33" timeLoss="1.80" maxSpeed="1.39"/>
    </personinfo>
    <personinfo id="B50" depart="0.00" type="DEFAULT_PEDTYPE">
        <walk depart="0.00" departPos="221.00" arrival="9.00" arrivalPos="226.67" duration="9.00" routeLength="5.67" timeLoss="4.66" maxSpeed="1.31"/>
        <ride waitingTime="17.00" vehicle="busB.4" depart="26.00" arrival="182.00" arrivalPos="231.67" duration="156.00" routeLength="1770.33" timeLoss="11.55"/>
        <walk depart="182.00" departPos="231.67" arrival="198.00" arrivalPos="250.00" duration="16.00" routeLength="18.33" timeLoss="2.80" maxSpeed="1.39"/>
    </personinfo>
    <personinfo id="B51" depart="0.00" type="DEFAULT_PEDTYPE">
        <walk depart="0.00" departPos="221.00" arrival="4.00" arrivalPos="226.67" duration="4.00" routeLength="5.67" timeLoss="0.24" maxSpeed="1.51"/>
        <ride waitingTime="65.00" vehicle="busB.4" depart="69.00" arrival="183.00" arrivalPos="231.67" duration="114.00" routeLength="1326.99" timeLoss="7.47"/>
        <walk depart="183.00" departPos="231.67" arrival="199.00" arrivalPos="250.00" duration="16.00" routeLength="18.33" timeLoss="2.80" maxSpeed="1.39"/>
    </personinfo>
    <personinfo id="BStop6.1" depart="25.07" type="DEFAULT_PEDTYPE">
        <walk depart="26.00" departPos="200.00" arrival="53.00" arrivalPos="226.67" duration="27.00" routeLength="26.67" timeLoss="3.09" maxSpeed="1.12"/>
        <ride waitingTime="16.00" vehicle="busB.4" depart="69.00" arrival="183.00" arrivalPos="231.67" duration="114.00" routeLength="1326.99" timeLoss="7.47"/>
        <walk depart="183.00" departPos="231.67" arrival="199.00" arrivalPos="250.00" duration="16.00" routeLength="18.33" timeLoss="2.80" maxSpeed="1.39"/>
    </personinfo>
    <personinfo id="B75" depart="0.00" type="DEFAULT_PEDTYPE">
        <walk depart="0.00" departPos="221.00" arrival="10.00" arrivalPos="226.67" duration="10.00" routeLength="5.67" timeLoss="5.91" maxSpeed="1.39"/>
        <ride waitingTime="135.00" vehicle="busB.4" depart="145.00" arrival="184.00" arrivalPos="231.67" duration="39.00" routeLength="443.34" timeLoss="4.08"/>
        <walk depart="184.00" departPos="231.67" arrival="200.00" arrivalPos="250.00" duration="16.00" routeLength="18.33" timeLoss="2.80" maxSpeed="1.39"/>
    </personinfo>
    <personinfo id="B76" depart="0.00" type="DEFAULT_PEDTYPE">
        <walk depart="0.00" departPos="221.00" arrival="9.00" arrivalPos="226.67" duration="9.00" routeLength="5.67" timeLoss="4.15" maxSpeed="1.17"/>
        <ride waitingTime="136.00" vehicle="busB.4" depart="145.00" arrival="184.00" arrivalPos="231.67" duration="39.00" routeLength="443.34" timeLoss="4.08"/>
        <walk depart="184.00" departPos="231.67" arrival="200.00" arrivalPos="250.00" duration="16.00" routeLength="18.33" timeLoss="2.80" maxSpeed="1.39"/>
    </personinfo>
    <personinfo id="B41" depart="0.00" type="DEFAULT_PEDTYPE">
        <walk depart="0.00" departPos="221.00" arrival="5.00" arrivalPos="226.67" duration="5.00" routeLength="5.67" timeLoss="0.35" maxSpeed="1.22"/>
        <ride waitingTime="21.00" vehicle="busB.4" depart="26.00" arrival="224.00" arrivalPos="231.67" duration="198.00" routeLength="2213.66" timeLoss="15.48"/>
        <walk depart="224.00" departPos="231.67" arrival="239.00" arrivalPos="250.00" duration="15.00" routeLength="18.33" timeLoss="1.80" maxSpeed="1.39"/>
    </personinfo>
    <personinfo id="B64" depart="0.00" type="DEFAULT_PEDTYPE">
        <walk depart="0.00" departPos="221.00" arrival="8.00" arrivalPos="226.67" duration="8.00" routeLength="5.67" timeLoss="4.23" maxSpeed="1.50"/>
        <ride waitingTime="19.00" vehicle="busB.3" depart="27.00" arrival="224.00" arrivalPos="231.67" duration="197.00" routeLength="2658.15" timeLoss="10.54"/>
        <walk depart="224.00" departPos="231.67" arrival="239.00" arrivalPos="250.00" duration="15.00" routeLength="18.33" timeLoss="1.80" maxSpeed="1.39"/>
    </personinfo>
    <personinfo id="B42" depart="0.00" type="DEFAULT_PEDTYPE">
        <walk depart="0.00" departPos="221.00" arrival="6.00" arrivalPos="226.67" duration="6.00" routeLength="5.67" timeLoss="2.21" maxSpeed="1.50"/>
        <ride waitingTime="20.00" vehicle="busB.4" depart="26.00" arrival="224.00" arrivalPos="231.67" duration="198.00" routeLength="2213.66" timeLoss="15.48"/>
        <walk depart="224.00" departPos="231.67" arrival="240.00" arrivalPos="250.00" duration="16.00" routeLength="18.33" timeLoss="2.80" maxSpeed="1.39"/>
    </personinfo>
    <personinfo id="B43" depart="0.00" type="DEFAULT_PEDTYPE">
        <walk depart="0.00" departPos="221.00" arrival="7.00" arrivalPos="226.67" duration="7.00" routeLength="5.67" timeLoss="2.89" maxSpeed="1.38"/>
        <ride waitingTime="19.00" vehicle="busB.4" depart="26.00" arrival="225.00" arrivalPos="231.67" duration="199.00" routeLength="2213.66" timeLoss="15.48"/>
        <walk depart="225.00" departPos="231.67" arrival="240.00" arrivalPos="250.00" duration="15.00" routeLength="18.33" timeLoss="1.80" maxSpeed="1.39"/>
    </personinfo>
    <personinfo id="B109" depart="0.00" type="DEFAULT_PEDTYPE">
        <walk depart="0.00" departPos="221.00" arrival="8.00" arrivalPos="226.67" duration="8.00" routeLength="5.67" timeLoss="4.26" maxSpeed="1.52"/>
        <ride waitingTime="150.00" vehicle="busB.3" depart="158.00" arrival="225.00" arrivalPos="231.67" duration="67.00" routeLength="886.67" timeLoss="4.94"/>
        <walk depart="225.00" departPos="231.67" arrival="240.00" arrivalPos="250.00" duration="15.00" routeLength="18.33" timeLoss="1.80" maxSpeed="1.39"/>
    </personinfo>
    <personinfo id="B44" depart="0.00" type="DEFAULT_PEDTYPE">
        <walk depart="0.00" departPos="221.00" arrival="6.00" arrivalPos="226.67" duration="6.00" routeLength="5.67" timeLoss="2.38" maxSpeed="1.57"/>
        <ride waitingTime="20.00" vehicle="busB.4" depart="26.00" arrival="225.00" arrivalPos="231.67" duration="199.00" routeLength="2213.66" timeLoss="15.48"/>
        <walk depart="225.00" departPos="231.67" arrival="241.00" arrivalPos="250.00" duration="16.00" routeLength="18.33" timeLoss="2.80" maxSpeed="1.39"/>
    </personinfo>
    <personinfo id="B54" depart="0.00" type="DEFAULT_PEDTYPE">
        <walk depart="0.00" departPos="221.00" arrival="7.00" arrivalPos="226.67" duration="7.00" routeLength="5.67" timeLoss="3.43" maxSpeed="1.59"/>
        <ride waitingTime="62.00" vehicle="busB.4" depart="69.00" arrival="226.00" arrivalPos="231.67" duration="157.00" routeLength="1770.32" timeLoss="11.40"/>
        <walk depart="226.00" departPos="231.67" arrival="241.00" arrivalPos="250.00" duration="15.00" routeLength="18.33" timeLoss="1.80" maxSpeed="1.39"/>
    </personinfo>
    <personinfo id="B67" depart="0.00" type="DEFAULT_PEDTYPE">
        <walk depart="0.00" departPos="221.00" arrival="9.00" arrivalPos="226.67" duration="9.00" routeLength="5.67" timeLoss="5.22" maxSpeed="1.50"/>
        <ride waitingTime="18.00" vehicle="busB.3" depart="27.00" arrival="225.00" arrivalPos="231.67" duration="198.00" routeLength="2658.15" timeLoss="10.54"/>
        <walk depart="225.00" departPos="231.67" arrival="241.00" arrivalPos="250.00" duration="16.00" routeLength="18.33" timeLoss="2.80" maxSpeed="1.39"/>
    </personinfo>
    <personinfo id="B55" depart="0.00" type="DEFAULT_PEDTYPE">
        <walk depart="0.00" departPos="221.00" arrival="7.00" arrivalPos="226.67" duration="7.00" routeLength="5.67" timeLoss="2.73" maxSpeed="1.33"/>
        <ride waitingTime="62.00" vehicle="busB.4" depart="69.00" arrival="226.00" arrivalPos="231.67" duration="157.00" routeLength="1770.32" timeLoss="11.40"/>
        <walk depart="226.00" departPos="231.67" arrival="242.00" arrivalPos="250.00" duration="16.00" routeLength="18.33" timeLoss="2.80" maxSpeed="1.39"/>
    </personinfo>
    <personinfo id="B107" depart="0.00" type="DEFAULT_PEDTYPE">
        <walk depart="0.00" departPos="221.00" arrival="9.00" arrivalPos="226.67" duration="9.00" routeLength="5.67" timeLoss="5.71" maxSpeed="1.73"/>
        <ride waitingTime="149.00" vehicle="busB.3" depart="158.00" arrival="226.00" arrivalPos="231.67" duration="68.00" routeLength="886.67" timeLoss="4.94"/>
        <walk depart="226.00" departPos="231.67" arrival="242.00" arrivalPos="250.00" duration="16.00" routeLength="18.33" timeLoss="2.80" maxSpeed="1.39"/>
    </personinfo>
    <personinfo id="B57" depart="0.00" type="DEFAULT_PEDTYPE">
        <walk depart="0.00" departPos="221.00" arrival="11.00" arrivalPos="226.67" duration="11.00" routeLength="5.67" timeLoss="7.25" maxSpeed="1.51"/>
        <ride waitingTime="58.00" vehicle="busB.4" depart="69.00" arrival="227.00" arrivalPos="231.67" duration="158.00" routeLength="1770.32" timeLoss="11.40"/>
        <walk depart="227.00" departPos="231.67" arrival="243.00" arrivalPos="250.00" duration="16.00" routeLength="18.33" timeLoss="2.80" maxSpeed="1.39"/>
    </personinfo>
    <personinfo id="B58" depart="0.00" type="DEFAULT_PEDTYPE">
        <walk depart="0.00" departPos="221.00" arrival="9.00" arrivalPos="226.67" duration="9.00" routeLength="5.67" timeLoss="5.04" maxSpeed="1.43"/>
        <ride waitingTime="60.00" vehicle="busB.4" depart="69.00" arrival="227.00" arrivalPos="231.67" duration="158.00" routeLength="1770.32" timeLoss="11.40"/>
        <walk depart="227.00" departPos="231.67" arrival="243.00" arrivalPos="250.00" duration="16.00" routeLength="18.33" timeLoss="2.80" maxSpeed="1.39"/>
    </personinfo>
    <personinfo id="B72" depart="0.00" type="DEFAULT_PEDTYPE">
        <walk depart="0.00" departPos="221.00" arrival="6.00" arrivalPos="226.67" duration="6.00" routeLength="5.67" timeLoss="1.60" maxSpeed="1.29"/>
        <ride waitingTime="139.00" vehicle="busB.4" depart="145.00" arrival="228.00" arrivalPos="231.67" duration="83.00" routeLength="886.67" timeLoss="8.02"/>
        <walk depart="228.00" departPos="231.67" arrival="244.00" arrivalPos="250.00" duration="16.00" routeLength="18.33" timeLoss="2.80" maxSpeed="1.39"/>
    </personinfo>
    <personinfo id="B78" depart="0.00" type="DEFAULT_PEDTYPE">
        <walk depart="0.00" departPos="221.00" arrival="11.00" arrivalPos="226.67" duration="11.00" routeLength="5.67" timeLoss="6.32" maxSpeed="1.21"/>
        <ride waitingTime="134.00" vehicle="busB.4" depart="145.00" arrival="228.00" arrivalPos="231.67" duration="83.00" routeLength="886.67" timeLoss="8.02"/>
        <walk depart="228.00" departPos="231.67" arrival="244.00" arrivalPos="250.00" duration="16.00" routeLength="18.33" timeLoss="2.80" maxSpeed="1.39"/>
    </personinfo>
    <personinfo id="BStop8.4" depart="61.29" type="DEFAULT_PEDTYPE">
        <walk depart="62.00" departPos="200.00" arrival="82.00" arrivalPos="226.67" duration="20.00" routeLength="26.67" timeLoss="2.28" maxSpeed="1.50"/>
        <ride waitingTime="63.00" vehicle="busB.4" depart="145.00" arrival="229.00" arrivalPos="231.67" duration="84.00" routeLength="886.67" timeLoss="8.02"/>
        <walk depart="229.00" departPos="231.67" arrival="245.00" arrivalPos="250.00" duration="16.00" routeLength="18.33" timeLoss="2.80" maxSpeed="1.39"/>
    </personinfo>
    <personinfo id="B31" depart="0.00" type="DEFAULT_PEDTYPE">
        <walk depart="0.00" departPos="221.00" arrival="5.00" arrivalPos="226.67" duration="5.00" routeLength="5.67" timeLoss="0.76" maxSpeed="1.34"/>
        <ride waitingTime="123.00" vehicle="busB.0" depart="128.00" arrival="260.00" arrivalPos="231.67" duration="132.00" routeLength="1768.47" timeLoss="3.68"/>
        <walk depart="260.00" departPos="231.67" arrival="275.00" arrivalPos="250.00" duration="15.00" routeLength="18.33" timeLoss="1.80" maxSpeed="1.39"/>
    </personinfo>
    <personinfo id="B33" depart="0.00" type="DEFAULT_PEDTYPE">
        <walk depart="0.00" departPos="221.00" arrival="7.00" arrivalPos="226.67" duration="7.00" routeLength="5.67" timeLoss="3.19" maxSpeed="1.49"/>
        <ride waitingTime="121.00" vehicle="busB.0" depart="128.00" arrival="260.00" arrivalPos="231.67" duration="132.00" routeLength="1768.47" timeLoss="3.68"/>
        <walk depart="260.00" departPos="231.67" arrival="276.00" arrivalPos="250.00" duration="16.00" routeLength="18.33" timeLoss="2.80" maxSpeed="1.39"/>
    </personinfo>
    <personinfo id="B36" depart="0.00" type="DEFAULT_PEDTYPE">
        <walk depart="0.00" departPos="221.00" arrival="8.00" arrivalPos="226.67" duration="8.00" routeLength="5.67" timeLoss="4.37" maxSpeed="1.56"/>
        <ride waitingTime="120.00" vehicle="busB.0" depart="128.00" arrival="261.00" arrivalPos="231.67" duration="133.00" routeLength="1768.47" timeLoss="3.68"/>
        <walk depart="261.00" departPos="231.67" arrival="276.00" arrivalPos="250.00" duration="15.00" routeLength="18.33" timeLoss="1.80" maxSpeed="1.39"/>
    </personinfo>
    <personinfo id="BStop4.1" depart="38.07" type="DEFAULT_PEDTYPE">
        <walk depart="39.00" departPos="200.00" arrival="59.00" arrivalPos="226.67" duration="20.00" routeLength="26.67" timeLoss="1.77" maxSpeed="1.46"/>
        <ride waitingTime="69.00" vehicle="busB.0" depart="128.00" arrival="261.00" arrivalPos="231.67" duration="133.00" routeLength="1768.47" timeLoss="3.68"/>
        <walk depart="261.00" departPos="231.67" arrival="277.00" arrivalPos="250.00" duration="16.00" routeLength="18.33" timeLoss="2.80" maxSpeed="1.39"/>
    </personinfo>
    <personinfo id="B106" depart="0.00" type="DEFAULT_PEDTYPE">
        <walk depart="0.00" departPos="221.00" arrival="8.00" arrivalPos="226.67" duration="8.00" routeLength="5.67" timeLoss="3.79" maxSpeed="1.35"/>
        <ride waitingTime="150.00" vehicle="busB.3" depart="158.00" arrival="263.00" arrivalPos="231.67" duration="105.00" routeLength="1330.00" timeLoss="9.02"/>
        <walk depart="263.00" departPos="231.67" arrival="278.00" arrivalPos="250.00" duration="15.00" routeLength="18.33" timeLoss="1.80" maxSpeed="1.39"/>
    </personinfo>
    <personinfo id="B38" depart="0.00" type="DEFAULT_PEDTYPE">
        <walk depart="0.00" departPos="221.00" arrival="9.00" arrivalPos="226.67" duration="9.00" routeLength="5.67" timeLoss="5.22" maxSpeed="1.50"/>
        <ride waitingTime="119.00" vehicle="busB.0" depart="128.00" arrival="299.00" arrivalPos="231.67" duration="171.00" routeLength="2211.81" timeLoss="7.76"/>
        <walk depart="299.00" departPos="231.67" arrival="314.00" arrivalPos="250.00" duration="15.00" routeLength="18.33" timeLoss="1.80" maxSpeed="1.39"/>
    </personinfo>
    <personinfo id="B101" depart="0.00" type="DEFAULT_PEDTYPE">
        <walk depart="0.00" departPos="221.00" arrival="5.00" arrivalPos="226.67" duration="5.00" routeLength="5.67" timeLoss="0.90" maxSpeed="1.38"/>
        <ride waitingTime="153.00" vehicle="busB.3" depart="158.00" arrival="300.00" arrivalPos="231.67" duration="142.00" routeLength="1773.34" timeLoss="13.10"/>
        <walk depart="300.00" departPos="231.67" arrival="315.00" arrivalPos="250.00" duration="15.00" routeLength="18.33" timeLoss="1.80" maxSpeed="1.39"/>
    </personinfo>
    <personinfo id="BStop8.7" depart="178.94" type="DEFAULT_PEDTYPE">
        <walk depart="179.00" departPos="200.00" arrival="202.00" arrivalPos="226.67" duration="23.00" routeLength="26.67" timeLoss="2.82" maxSpeed="1.32"/>
        <ride waitingTime="61.00" vehicle="busB.0" depart="263.00" arrival="300.00" arrivalPos="231.67" duration="37.00" routeLength="443.34" timeLoss="4.08"/>
        <walk depart="300.00" departPos="231.67" arrival="315.00" arrivalPos="250.00" duration="15.00" routeLength="18.33" timeLoss="1.80" maxSpeed="1.39"/>
    </personinfo>
    <personinfo id="B102" depart="0.00" type="DEFAULT_PEDTYPE">
        <walk depart="0.00" departPos="221.00" arrival="6.00" arrivalPos="226.67" duration="6.00" routeLength="5.67" timeLoss="2.44" maxSpeed="1.59"/>
        <ride waitingTime="152.00" vehicle="busB.3" depart="158.00" arrival="300.00" arrivalPos="231.67" duration="142.00" routeLength="1773.34" timeLoss="13.10"/>
        <walk depart="300.00" departPos="231.67" arrival="316.00" arrivalPos="250.00" duration="16.00" routeLength="18.33" timeLoss="2.80" maxSpeed="1.39"/>
    </personinfo>
    <personinfo id="BStop8.9" depart="197.40" type="DEFAULT_PEDTYPE">
        <walk depart="198.00" departPos="200.00" arrival="220.00" arrivalPos="226.67" duration="22.00" routeLength="26.67" timeLoss="3.24" maxSpeed="1.42"/>
        <ride waitingTime="43.00" vehicle="busB.0" depart="263.00" arrival="300.00" arrivalPos="231.67" duration="37.00" routeLength="443.34" timeLoss="4.08"/>
        <walk depart="300.00" departPos="231.67" arrival="316.00" arrivalPos="250.00" duration="16.00" routeLength="18.33" timeLoss="2.80" maxSpeed="1.39"/>
    </personinfo>
    <personinfo id="B103" depart="0.00" type="DEFAULT_PEDTYPE">
        <walk depart="0.00" departPos="221.00" arrival="7.00" arrivalPos="226.67" duration="7.00" routeLength="5.67" timeLoss="2.12" maxSpeed="1.16"/>
        <ride waitingTime="151.00" vehicle="busB.3" depart="158.00" arrival="301.00" arrivalPos="231.67" duration="143.00" routeLength="1773.34" timeLoss="13.10"/>
        <walk depart="301.00" departPos="231.67" arrival="317.00" arrivalPos="250.00" duration="16.00" routeLength="18.33" timeLoss="2.80" maxSpeed="1.39"/>
    </personinfo>
    <personinfo id="B105" depart="0.00" type="DEFAULT_PEDTYPE">
        <walk depart="0.00" departPos="221.00" arrival="7.00" arrivalPos="226.67" duration="7.00" routeLength="5.67" timeLoss="2.98" maxSpeed="1.41"/>
        <ride waitingTime="151.00" vehicle="busB.3" depart="158.00" arrival="301.00" arrivalPos="231.67" duration="143.00" routeLength="1773.34" timeLoss="13.10"/>
        <walk depart="301.00" departPos="231.67" arrival="317.00" arrivalPos="250.00" duration="16.00" routeLength="18.33" timeLoss="2.80" maxSpeed="1.39"/>
    </personinfo>
    <personinfo id="B6" depart="0.00" type="DEFAULT_PEDTYPE">
        <walk depart="0.00" departPos="221.00" arrival="8.00" arrivalPos="226.67" duration="8.00" routeLength="5.67" timeLoss="4.46" maxSpeed="1.60"/>
        <ride waitingTime="219.00" vehicle="busB.3" depart="227.00" arrival="302.00" arrivalPos="231.67" duration="75.00" routeLength="886.67" timeLoss="8.17"/>
        <walk depart="302.00" departPos="231.67" arrival="318.00" arrivalPos="250.00" duration="16.00" routeLength="18.33" timeLoss="2.80" maxSpeed="1.39"/>
    </personinfo>
    <personinfo id="B9" depart="0.00" type="DEFAULT_PEDTYPE">
        <walk depart="0.00" departPos="221.00" arrival="11.00" arrivalPos="226.67" duration="11.00" routeLength="5.67" timeLoss="7.35" maxSpeed="1.55"/>
        <ride waitingTime="216.00" vehicle="busB.3" depart="227.00" arrival="302.00" arrivalPos="231.67" duration="75.00" routeLength="886.67" timeLoss="8.17"/>
        <walk depart="302.00" departPos="231.67" arrival="318.00" arrivalPos="250.00" duration="16.00" routeLength="18.33" timeLoss="2.80" maxSpeed="1.39"/>
    </personinfo>
    <personinfo id="B104" depart="0.00" type="DEFAULT_PEDTYPE">
        <walk depart="0.00" departPos="221.00" arrival="6.00" arrivalPos="226.67" duration="6.00" routeLength="5.67" timeLoss="2.17" maxSpeed="1.48"/>
        <ride waitingTime="152.00" vehicle="busB.3" depart="158.00" arrival="341.00" arrivalPos="231.67" duration="183.00" routeLength="2215.51" timeLoss="17.27"/>
        <walk depart="341.00" departPos="231.67" arrival="356.00" arrivalPos="250.00" duration="15.00" routeLength="18.33" timeLoss="1.80" maxSpeed="1.39"/>
    </personinfo>
    <personinfo id="B108" depart="0.00" type="DEFAULT_PEDTYPE">
        <walk depart="0.00" departPos="221.00" arrival="7.00" arrivalPos="226.67" duration="7.00" routeLength="5.67" timeLoss="3.32" maxSpeed="1.54"/>
        <ride waitingTime="151.00" vehicle="busB.3" depart="158.00" arrival="341.00" arrivalPos="231.67" duration="183.00" routeLength="2215.51" timeLoss="17.27"/>
        <walk depart="341.00" departPos="231.67" arrival="357.00" arrivalPos="250.00" duration="16.00" routeLength="18.33" timeLoss="2.80" maxSpeed="1.39"/>
    </personinfo>
    <personinfo id="B10" depart="0.00" type="DEFAULT_PEDTYPE">
        <walk depart="0.00" departPos="221.00" arrival="6.00" arrivalPos="226.67" duration="6.00" routeLength="5.67" timeLoss="1.95" maxSpeed="1.40"/>
        <ride waitingTime="221.00" vehicle="busB.3" depart="227.00" arrival="342.00" arrivalPos="231.67" duration="115.00" routeLength="1328.84" timeLoss="12.33"/>
        <walk depart="342.00" departPos="231.67" arrival="358.00" arrivalPos="250.00" duration="16.00" routeLength="18.33" timeLoss="2.80" maxSpeed="1.39"/>
    </personinfo>
    <personinfo id="B3" depart="0.00" type="DEFAULT_PEDTYPE">
        <walk depart="0.00" departPos="221.00" arrival="6.00" arrivalPos="226.67" duration="6.00" routeLength="5.67" timeLoss="2.04" maxSpeed="1.43"/>
        <ride waitingTime="221.00" vehicle="busB.3" depart="227.00" arrival="342.00" arrivalPos="231.67" duration="115.00" routeLength="1328.84" timeLoss="12.33"/>
        <walk depart="342.00" departPos="231.67" arrival="358.00" arrivalPos="250.00" duration="16.00" routeLength="18.33" timeLoss="2.80" maxSpeed="1.39"/>
    </personinfo>
    <personinfo id="BStop1.1" depart="33.14" type="DEFAULT_PEDTYPE">
        <walk depart="34.00" departPos="200.00" arrival="58.00" arrivalPos="226.67" duration="24.00" routeLength="26.67" timeLoss="2.92" maxSpeed="1.27"/>
        <ride waitingTime="169.00" vehicle="busB.3" depart="227.00" arrival="343.00" arrivalPos="231.67" duration="116.00" routeLength="1328.84" timeLoss="12.33"/>
        <walk depart="343.00" departPos="231.67" arrival="359.00" arrivalPos="250.00" duration="16.00" routeLength="18.33" timeLoss="2.80" maxSpeed="1.39"/>
    </personinfo>
    <personinfo id="p3" depart="0.00" type="DEFAULT_PEDTYPE">
        <walk depart="0.00" departPos="221.00" arrival="7.00" arrivalPos="226.67" duration="7.00" routeLength="5.67" timeLoss="2.96" maxSpeed="1.40"/>
        <ride waitingTime="316.00" vehicle="bus.5" depart="323.00" arrival="359.00" arrivalPos="231.67" duration="36.00" routeLength="443.33" timeLoss="4.41"/>
        <walk depart="359.00" departPos="231.67" arrival="374.00" arrivalPos="250.00" duration="15.00" routeLength="18.33" timeLoss="1.80" maxSpeed="1.39"/>
    </personinfo>
    <personinfo id="p4" depart="0.00" type="DEFAULT_PEDTYPE">
        <walk depart="0.00" departPos="221.00" arrival="8.00" arrivalPos="226.67" duration="8.00" routeLength="5.67" timeLoss="4.23" maxSpeed="1.50"/>
        <ride waitingTime="315.00" vehicle="bus.5" depart="323.00" arrival="359.00" arrivalPos="231.67" duration="36.00" routeLength="443.33" timeLoss="4.41"/>
        <walk depart="359.00" departPos="231.67" arrival="375.00" arrivalPos="250.00" duration="16.00" routeLength="18.33" timeLoss="2.80" maxSpeed="1.39"/>
    </personinfo>
    <personinfo id="pStop1.0" depart="133.30" type="DEFAULT_PEDTYPE">
        <walk depart="134.00" departPos="200.00" arrival="154.00" arrivalPos="226.67" duration="20.00" routeLength="26.67" timeLoss="2.99" maxSpeed="1.57"/>
        <ride waitingTime="169.00" vehicle="bus.5" depart="323.00" arrival="360.00" arrivalPos="231.67" duration="37.00" routeLength="443.33" timeLoss="4.41"/>
        <walk depart="360.00" departPos="231.67" arrival="375.00" arrivalPos="250.00" duration="15.00" routeLength="18.33" timeLoss="1.80" maxSpeed="1.39"/>
    </personinfo>
    <personinfo id="B93" depart="0.00" type="DEFAULT_PEDTYPE">
        <walk depart="0.00" departPos="221.00" arrival="6.00" arrivalPos="226.67" duration="6.00" routeLength="5.67" timeLoss="1.93" maxSpeed="1.39"/>