<?xml version="1.0" encoding="UTF-8"?>

<!-- generated on 2024-06-14 17:46:05 by Eclipse SUMO GUI Version 1.14.1
<configuration xmlns:xsi="http://www.w3.org/2001/XMLSchema-instance" xsi:noNamespaceSchemaLocation="http://sumo.dlr.de/xsd/sumoConfiguration.xsd">

    <input>
        <net-file value="wang2020/sumo/ring.net.xml"/>
        <additional-files value="wang2020/sumo/ring.add.xml,wang2020/sumo/persons.add.xml"/>
    </input>

    <output>
        <tripinfo-output value="tripinfo.xml"/>
    </output>

    <processing>
        <no-internal-links value="false"/>
        <lanechange.overtake-right value="true"/>
    </processing>

    <report>
        <no-warnings value="true"/>
    </report>

    <traci_server>
        <remote-port value="65197"/>
    </traci_server>

</configuration>
-->

<tripinfos xmlns:xsi="http://www.w3.org/2001/XMLSchema-instance" xsi:noNamespaceSchemaLocation="http://sumo.dlr.de/xsd/tripinfo_file.xsd">
    <personinfo id="p21" depart="0.00" type="DEFAULT_PEDTYPE">
        <walk depart="0.00" departPos="221.00" arrival="5.00" arrivalPos="226.67" duration="5.00" routeLength="5.67" timeLoss="0.99" maxSpeed="1.41"/>
        <ride waitingTime="19.00" vehicle="bus.5" depart="24.00" arrival="60.00" arrivalPos="231.67" duration="36.00" routeLength="443.33" timeLoss="4.41"/>
        <walk depart="60.00" departPos="231.67" arrival="75.00" arrivalPos="250.00" duration="15.00" routeLength="18.33" timeLoss="1.80" maxSpeed="1.39"/>
    </personinfo>
    <personinfo id="p44" depart="0.00" type="DEFAULT_PEDTYPE">
        <walk depart="0.00" departPos="221.00" arrival="7.00" arrivalPos="226.67" duration="7.00" routeLength="5.67" timeLoss="3.07" maxSpeed="1.44"/>
        <ride waitingTime="17.00" vehicle="bus.4" depart="24.00" arrival="60.00" arrivalPos="231.67" duration="36.00" routeLength="443.34" timeLoss="4.41"/>
        <walk depart="60.00" departPos="231.67" arrival="75.00" arrivalPos="250.00" duration="15.00" routeLength="18.33" timeLoss="1.80" maxSpeed="1.39"/>
    </personinfo>
    <personinfo id="pStop7.0" depart="0.54" type="DEFAULT_PEDTYPE">
        <walk depart="1.00" departPos="200.00" arrival="21.00" arrivalPos="226.67" duration="20.00" routeLength="26.67" timeLoss="2.34" maxSpeed="1.51"/>
        <ride waitingTime="4.00" vehicle="bus.3" depart="25.00" arrival="60.00" arrivalPos="231.67" duration="35.00" routeLength="443.33" timeLoss="4.41"/>
        <walk depart="60.00" departPos="231.67" arrival="75.00" arrivalPos="250.00" duration="15.00" routeLength="18.33" timeLoss="1.80" maxSpeed="1.39"/>
    </personinfo>
    <personinfo id="p50" depart="0.00" type="DEFAULT_PEDTYPE">
        <walk depart="0.00" departPos="221.00" arrival="10.00" arrivalPos="226.67" duration="10.00" routeLength="5.67" timeLoss="5.20" maxSpeed="1.18"/>
        <ride waitingTime="14.00" vehicle="bus.4" depart="24.00" arrival="61.00" arrivalPos="231.67" duration="37.00" routeLength="443.34" timeLoss="4.41"/>
        <walk depart="61.00" departPos="231.67" arrival="76.00" arrivalPos="250.00" duration="15.00" routeLength="18.33" timeLoss="1.80" maxSpeed="1.39"/>
    </personinfo>
    <personinfo id="p88" depart="0.00" type="DEFAULT_PEDTYPE">
        <walk depart="0.00" departPos="221.00" arrival="9.00" arrivalPos="226.67" duration="9.00" routeLength="5.67" timeLoss="5.09" maxSpeed="1.45"/>
        <ride waitingTime="15.00" vehicle="bus.2" depart="24.00" arrival="62.00" arrivalPos="231.67" duration="38.00" routeLength="443.33" timeLoss="6.41"/>
        <walk depart="62.00" departPos="231.67" arrival="77.00" arrivalPos="250.00" duration="15.00" routeLength="18.33" timeLoss="1.80" maxSpeed="1.39"/>
    </personinfo>
    <personinfo id="B8" depart="0.00" type="DEFAULT_PEDTYPE">
        <walk depart="0.00" departPos="221.00" arrival="9.00" arrivalPos="226.67" duration="9.00" routeLength="5.67" timeLoss="4.03" maxSpeed="1.14"/>
        <ride waitingTime="17.00" vehicle="busB.0" depart="26.00" arrival="66.00" arrivalPos="231.67" duration="40.00" routeLength="443.33" timeLoss="4.08"/>
        <walk depart="66.00" departPos="231.67" arrival="81.00" arrivalPos="250.00" duration="15.00" routeLength="18.33" timeLoss="1.80" maxSpeed="1.39"/>
    </personinfo>
    <personinfo id="B22" depart="0.00" type="DEFAULT_PEDTYPE">
        <walk depart="0.00" departPos="221.00" arrival="5.00" arrivalPos="226.67" duration="5.00" routeLength="5.67" timeLoss="1.49" maxSpeed="1.62"/>
        <ride waitingTime="21.00" vehicle="busB.5" depart="26.00" arrival="67.00" arrivalPos="231.67" duration="41.00" routeLength="442.17" timeLoss="4.17"/>
        <walk depart="67.00" departPos="231.67" arrival="83.00" arrivalPos="250.00" duration="16.00" routeLength="18.33" timeLoss="2.80" maxSpeed="1.39"/>
    </personinfo>
    <personinfo id="B28" depart="0.00" type="DEFAULT_PEDTYPE">
        <walk depart="0.00" departPos="221.00" arrival="9.00" arrivalPos="226.67" duration="9.00" routeLength="5.67" timeLoss="4.93" maxSpeed="1.39"/>
        <ride waitingTime="17.00" vehicle="busB.5" depart="26.00" arrival="68.00" arrivalPos="231.67" duration="42.00" routeLength="442.17" timeLoss="4.17"/>
        <walk depart="68.00" departPos="231.67" arrival="83.00" arrivalPos="250.00" duration="15.00" routeLength="18.33" timeLoss="1.80" maxSpeed="1.39"/>
    </personinfo>
    <personinfo id="B43" depart="0.00" type="DEFAULT_PEDTYPE">
        <walk depart="0.00" departPos="221.00" arrival="7.00" arrivalPos="226.67" duration="7.00" routeLength="5.67" timeLoss="2.89" maxSpeed="1.38"/>
        <ride waitingTime="19.00" vehicle="busB.4" depart="26.00" arrival="68.00" arrivalPos="231.67" duration="42.00" routeLength="443.34" timeLoss="4.08"/>
        <walk depart="68.00" departPos="231.67" arrival="83.00" arrivalPos="250.00" duration="15.00" routeLength="18.33" timeLoss="1.80" maxSpeed="1.39"/>
    </personinfo>
    <personinfo id="B45" depart="0.00" type="DEFAULT_PEDTYPE">
        <walk depart="0.00" departPos="221.00" arrival="8.00" arrivalPos="226.67" duration="8.00" routeLength="5.67" timeLoss="4.12" maxSpeed="1.46"/>
        <ride waitingTime="18.00" vehicle="busB.4" depart="26.00" arrival="68.00" arrivalPos="231.67" duration="42.00" routeLength="443.34" timeLoss="4.08"/>
        <walk depart="68.00" departPos="231.67" arrival="83.00" arrivalPos="250.00" duration="15.00" routeLength="18.33" timeLoss="1.80" maxSpeed="1.39"/>
    </personinfo>
    <personinfo id="B30" depart="0.00" type="DEFAULT_PEDTYPE">
        <walk depart="0.00" departPos="221.00" arrival="9.00" arrivalPos="226.67" duration="9.00" routeLength="5.67" timeLoss="5.07" maxSpeed="1.44"/>
        <ride waitingTime="17.00" vehicle="busB.5" depart="26.00" arrival="68.00" arrivalPos="231.67" duration="42.00" routeLength="442.17" timeLoss="4.17"/>
        <walk depart="68.00" departPos="231.67" arrival="84.00" arrivalPos="250.00" duration="16.00" routeLength="18.33" timeLoss="2.80" maxSpeed="1.39"/>
    </personinfo>
    <personinfo id="B27" depart="0.00" type="DEFAULT_PEDTYPE">
        <walk depart="0.00" departPos="221.00" arrival="10.00" arrivalPos="226.67" duration="10.00" routeLength="5.67" timeLoss="5.40" maxSpeed="1.23"/>
        <ride waitingTime="16.00" vehicle="busB.5" depart="26.00" arrival="69.00" arrivalPos="231.67" duration="43.00" routeLength="442.17" timeLoss="4.17"/>
        <walk depart="69.00" departPos="231.67" arrival="84.00" arrivalPos="250.00" duration="15.00" routeLength="18.33" timeLoss="1.80" maxSpeed="1.39"/>
    </personinfo>
    <personinfo id="B50" depart="0.00" type="DEFAULT_PEDTYPE">
        <walk depart="0.00" departPos="221.00" arrival="9.00" arrivalPos="226.67" duration="9.00" routeLength="5.67" timeLoss="4.66" maxSpeed="1.31"/>
        <ride waitingTime="17.00" vehicle="busB.4" depart="26.00" arrival="69.00" arrivalPos="231.67" duration="43.00" routeLength="443.34" timeLoss="4.08"/>
        <walk depart="69.00" departPos="231.67" arrival="84.00" arrivalPos="250.00" duration="15.00" routeLength="18.33" timeLoss="1.80" maxSpeed="1.39"/>
    </personinfo>
    <personinfo id="B62" depart="0.00" type="DEFAULT_PEDTYPE">
        <walk depart="0.00" departPos="221.00" arrival="6.00" arrivalPos="226.67" duration="6.00" routeLength="5.67" timeLoss="2.02" maxSpeed="1.43"/>
        <ride waitingTime="21.00" vehicle="busB.3" depart="27.00" arrival="69.00" arrivalPos="231.67" duration="42.00" routeLength="441.48" timeLoss="4.22"/>
        <walk depart="69.00" departPos="231.67" arrival="84.00" arrivalPos="250.00" duration="15.00" routeLength="18.33" timeLoss="1.80" maxSpeed="1.39"/>
    </personinfo>
    <personinfo id="B63" depart="0.00" type="DEFAULT_PEDTYPE">
        <walk depart="0.00" departPos="221.00" arrival="7.00" arrivalPos="226.67" duration="7.00" routeLength="5.67" timeLoss="3.04" maxSpeed="1.43"/>
        <ride waitingTime="20.00" vehicle="busB.3" depart="27.00" arrival="69.00" arrivalPos="231.67" duration="42.00" routeLength="441.48" timeLoss="4.22"/>
        <walk depart="69.00" departPos="231.67" arrival="84.00" arrivalPos="250.00" duration="15.00" routeLength="18.33" timeLoss="1.80" maxSpeed="1.39"/>
    </personinfo>
    <personinfo id="B66" depart="0.00" type="DEFAULT_PEDTYPE">
        <walk depart="0.00" departPos="221.00" arrival="8.00" arrivalPos="226.67" duration="8.00" routeLength="5.67" timeLoss="3.54" maxSpeed="1.27"/>
        <ride waitingTime="19.00" vehicle="busB.3" depart="27.00" arrival="70.00" arrivalPos="231.67" duration="43.00" routeLength="441.48" timeLoss="4.22"/>
        <walk depart="70.00" departPos="231.67" arrival="85.00" arrivalPos="250.00" duration="15.00" routeLength="18.33" timeLoss="1.80" maxSpeed="1.39"/>
    </personinfo>
    <personinfo id="B68" depart="0.00" type="DEFAULT_PEDTYPE">
        <walk depart="0.00" departPos="221.00" arrival="9.00" arrivalPos="226.67" duration="9.00" routeLength="5.67" timeLoss="4.42" maxSpeed="1.24"/>
        <ride waitingTime="18.00" vehicle="busB.3" depart="27.00" arrival="70.00" arrivalPos="231.67" duration="43.00" routeLength="441.48" timeLoss="4.22"/>
        <walk depart="70.00" departPos="231.67" arrival="86.00" arrivalPos="250.00" duration="16.00" routeLength="18.33" timeLoss="2.80" maxSpeed="1.39"/>
    </personinfo>
    <personinfo id="B83" depart="0.00" type="DEFAULT_PEDTYPE">
        <walk depart="0.00" departPos="221.00" arrival="7.00" arrivalPos="226.67" duration="7.00" routeLength="5.67" timeLoss="3.06" maxSpeed="1.44"/>
        <ride waitingTime="19.00" vehicle="busB.2" depart="26.00" arrival="72.00" arrivalPos="231.67" duration="46.00" routeLength="443.33" timeLoss="12.94"/>
        <walk depart="72.00" departPos="231.67" arrival="87.00" arrivalPos="250.00" duration="15.00" routeLength="18.33" timeLoss="1.80" maxSpeed="1.39"/>
    </personinfo>
    <personinfo id="p104" depart="0.00" type="DEFAULT_PEDTYPE">
        <walk depart="0.00" departPos="221.00" arrival="10.00" arrivalPos="226.67" duration="10.00" routeLength="5.67" timeLoss="5.71" maxSpeed="1.32"/>
        <ride waitingTime="14.00" vehicle="bus.1" depart="24.00" arrival="86.00" arrivalPos="231.67" duration="62.00" routeLength="886.67" timeLoss="4.81"/>
        <walk depart="86.00" departPos="231.67" arrival="101.00" arrivalPos="250.00" duration="15.00" routeLength="18.33" timeLoss="1.80" maxSpeed="1.39"/>
    </personinfo>
    <personinfo id="p36" depart="0.00" type="DEFAULT_PEDTYPE">
        <walk depart="0.00" departPos="221.00" arrival="8.00" arrivalPos="226.67" duration="8.00" routeLength="5.67" timeLoss="4.00" maxSpeed="1.42"/>
        <ride waitingTime="53.00" vehicle="bus.5" depart="61.00" arrival="92.00" arrivalPos="231.67" duration="31.00" routeLength="443.33" timeLoss="4.41"/>
        <walk depart="92.00" departPos="231.67" arrival="107.00" arrivalPos="250.00" duration="15.00" routeLength="18.33" timeLoss="1.80" maxSpeed="1.39"/>
    </personinfo>
    <personinfo id="p63" depart="0.00" type="DEFAULT_PEDTYPE">
        <walk depart="0.00" departPos="221.00" arrival="7.00" arrivalPos="226.67" duration="7.00" routeLength="5.67" timeLoss="2.98" maxSpeed="1.41"/>
        <ride waitingTime="18.00" vehicle="bus.3" depart="25.00" arrival="93.00" arrivalPos="231.67" duration="68.00" routeLength="886.67" timeLoss="8.81"/>
        <walk depart="93.00" departPos="231.67" arrival="108.00" arrivalPos="250.00" duration="15.00" routeLength="18.33" timeLoss="1.80" maxSpeed="1.39"/>
    </personinfo>
    <personinfo id="p86" depart="0.00" type="DEFAULT_PEDTYPE">
        <walk depart="0.00" departPos="221.00" arrival="8.00" arrivalPos="226.67" duration="8.00" routeLength="5.67" timeLoss="3.82" maxSpeed="1.36"/>
        <ride waitingTime="16.00" vehicle="bus.2" depart="24.00" arrival="94.00" arrivalPos="231.67" duration="70.00" routeLength="886.66" timeLoss="10.81"/>
        <walk depart="94.00" departPos="231.67" arrival="109.00" arrivalPos="250.00" duration="15.00" routeLength="18.33" timeLoss="1.80" maxSpeed="1.39"/>
    </personinfo>
    <personinfo id="p89" depart="0.00" type="DEFAULT_PEDTYPE">
        <walk depart="0.00" departPos="221.00" arrival="8.00" arrivalPos="226.67" duration="8.00" routeLength="5.67" timeLoss="3.95" maxSpeed="1.40"/>
        <ride waitingTime="16.00" vehicle="bus.2" depart="24.00" arrival="94.00" arrivalPos="231.67" duration="70.00" routeLength="886.66" timeLoss="10.81"/>
        <walk depart="94.00" departPos="231.67" arrival="109.00" arrivalPos="250.00" duration="15.00" routeLength="18.33" timeLoss="1.80" maxSpeed="1.39"/>
    </personinfo>
    <personinfo id="p78" depart="0.00" type="DEFAULT_PEDTYPE">
        <walk depart="0.00" departPos="221.00" arrival="8.00" arrivalPos="226.67" duration="8.00" routeLength="5.67" timeLoss="3.84" maxSpeed="1.36"/>
        <ride waitingTime="54.00" vehicle="bus.3" depart="62.00" arrival="93.00" arrivalPos="231.67" duration="31.00" routeLength="443.34" timeLoss="4.41"/>
        <walk depart="93.00" departPos="231.67" arrival="109.00" arrivalPos="250.00" duration="16.00" routeLength="18.33" timeLoss="2.80" maxSpeed="1.39"/>
    </personinfo>
    <personinfo id="p80" depart="0.00" type="DEFAULT_PEDTYPE">
        <walk depart="0.00" departPos="221.00" arrival="9.00" arrivalPos="226.67" duration="9.00" routeLength="5.67" timeLoss="5.24" maxSpeed="1.51"/>
        <ride waitingTime="53.00" vehicle="bus.3" depart="62.00" arrival="94.00" arrivalPos="231.67" duration="32.00" routeLength="443.34" timeLoss="4.41"/>
        <walk depart="94.00" departPos="231.67" arrival="109.00" arrivalPos="250.00" duration="15.00" routeLength="18.33" timeLoss="1.80" maxSpeed="1.39"/>
    </personinfo>
    <personinfo id="p97" depart="0.00" type="DEFAULT_PEDTYPE">
        <walk depart="0.00" departPos="221.00" arrival="11.00" arrivalPos="226.67" duration="11.00" routeLength="5.67" timeLoss="6.96" maxSpeed="1.40"/>
        <ride waitingTime="52.00" vehicle="bus.2" depart="63.00" arrival="94.00" arrivalPos="231.67" duration="31.00" routeLength="443.33" timeLoss="4.41"/>
        <walk depart="94.00" departPos="231.67" arrival="110.00" arrivalPos="250.00" duration="16.00" routeLength="18.33" timeLoss="2.80" maxSpeed="1.39"/>
    </personinfo>
    <personinfo id="p98" depart="0.00" type="DEFAULT_PEDTYPE">
        <walk depart="0.00" departPos="221.00" arrival="13.00" arrivalPos="226.67" duration="13.00" routeLength="5.67" timeLoss="8.50" maxSpeed="1.26"/>
        <ride waitingTime="50.00" vehicle="bus.2" depart="63.00" arrival="95.00" arrivalPos="231.67" duration="32.00" routeLength="443.33" timeLoss="4.41"/>
        <walk depart="95.00" departPos="231.67" arrival="110.00" arrivalPos="250.00" duration="15.00" routeLength="18.33" timeLoss="1.80" maxSpeed="1.39"/>
    </personinfo>
    <personinfo id="p45" depart="0.00" type="DEFAULT_PEDTYPE">
        <walk depart="0.00" departPos="221.00" arrival="7.00" arrivalPos="226.67" duration="7.00" routeLength="5.67" timeLoss="3.09" maxSpeed="1.45"/>
        <ride waitingTime="17.00" vehicle="bus.4" depart="24.00" arrival="96.00" arrivalPos="231.67" duration="72.00" routeLength="886.67" timeLoss="8.81"/>
        <walk depart="96.00" departPos="231.67" arrival="111.00" arrivalPos="250.00" duration="15.00" routeLength="18.33" timeLoss="1.80" maxSpeed="1.39"/>
    </personinfo>
    <personinfo id="p47" depart="0.00" type="DEFAULT_PEDTYPE">
        <walk depart="0.00" departPos="221.00" arrival="8.00" arrivalPos="226.67" duration="8.00" routeLength="5.67" timeLoss="3.91" maxSpeed="1.39"/>
        <ride waitingTime="16.00" vehicle="bus.4" depart="24.00" arrival="97.00" arrivalPos="231.67" duration="73.00" routeLength="886.67" timeLoss="8.81"/>
        <walk depart="97.00" departPos="231.67" arrival="112.00" arrivalPos="250.00" duration="15.00" routeLength="18.33" timeLoss="1.80" maxSpeed="1.39"/>
    </personinfo>
    <personinfo id="p48" depart="0.00" type="DEFAULT_PEDTYPE">
        <walk depart="0.00" departPos="221.00" arrival="9.00" arrivalPos="226.67" duration="9.00" routeLength="5.67" timeLoss="4.47" maxSpeed="1.25"/>
        <ride waitingTime="15.00" vehicle="bus.4" depart="24.00" arrival="97.00" arrivalPos="231.67" duration="73.00" routeLength="886.67" timeLoss="8.81"/>
        <walk depart="97.00" departPos="231.67" arrival="113.00" arrivalPos="250.00" duration="16.00" routeLength="18.33" timeLoss="2.80" maxSpeed="1.39"/>
    </personinfo>
    <personinfo id="p49" depart="0.00" type="DEFAULT_PEDTYPE">
        <walk depart="0.00" departPos="221.00" arrival="9.00" arrivalPos="226.67" duration="9.00" routeLength="5.67" timeLoss="4.35" maxSpeed="1.22"/>
        <ride waitingTime="15.00" vehicle="bus.4" depart="24.00" arrival="98.00" arrivalPos="231.67" duration="74.00" routeLength="886.67" timeLoss="8.81"/>
        <walk depart="98.00" departPos="231.67" arrival="113.00" arrivalPos="250.00" duration="15.00" routeLength="18.33" timeLoss="1.80" maxSpeed="1.39"/>
    </personinfo>
    <personinfo id="p51" depart="0.00" type="DEFAULT_PEDTYPE">
        <walk depart="0.00" departPos="221.00" arrival="6.00" arrivalPos="226.67" duration="6.00" routeLength="5.67" timeLoss="1.23" maxSpeed="1.19"/>
        <ride waitingTime="56.00" vehicle="bus.4" depart="62.00" arrival="98.00" arrivalPos="231.67" duration="36.00" routeLength="443.33" timeLoss="4.41"/>
        <walk depart="98.00" departPos="231.67" arrival="114.00" arrivalPos="250.00" duration="16.00" routeLength="18.33" timeLoss="2.80" maxSpeed="1.39"/>
    </personinfo>
    <personinfo id="p55" depart="0.00" type="DEFAULT_PEDTYPE">
        <walk depart="0.00" departPos="221.00" arrival="7.00" arrivalPos="226.67" duration="7.00" routeLength="5.67" timeLoss="2.93" maxSpeed="1.39"/>
        <ride waitingTime="55.00" vehicle="bus.4" depart="62.00" arrival="99.00" arrivalPos="231.67" duration="37.00" routeLength="443.33" timeLoss="4.41"/>
        <walk depart="99.00" departPos="231.67" arrival="114.00" arrivalPos="250.00" duration="15.00" routeLength="18.33" timeLoss="1.80" maxSpeed="1.39"/>
    </personinfo>
    <personinfo id="B110" depart="0.00" type="DEFAULT_PEDTYPE">
        <walk depart="0.00" departPos="221.00" arrival="9.00" arrivalPos="226.67" duration="9.00" routeLength="5.67" timeLoss="4.90" maxSpeed="1.38"/>
        <ride waitingTime="35.00" vehicle="busB.1" depart="44.00" arrival="105.00" arrivalPos="231.67" duration="61.00" routeLength="886.67" timeLoss="4.94"/>
        <walk depart="105.00" departPos="231.67" arrival="120.00" arrivalPos="250.00" duration="15.00" routeLength="18.33" timeLoss="1.80" maxSpeed="1.39"/>
    </personinfo>
    <personinfo id="B29" depart="0.00" type="DEFAULT_PEDTYPE">
        <walk depart="0.00" departPos="221.00" arrival="8.00" arrivalPos="226.67" duration="8.00" routeLength="5.67" timeLoss="3.78" maxSpeed="1.34"/>
        <ride waitingTime="18.00" vehicle="busB.5" depart="26.00" arrival="106.00" arrivalPos="231.67" duration="80.00" routeLength="883.65" timeLoss="8.38"/>
        <walk depart="106.00" departPos="231.67" arrival="121.00" arrivalPos="250.00" duration="15.00" routeLength="18.33" timeLoss="1.80" maxSpeed="1.39"/>
    </personinfo>
    <personinfo id="B32" depart="0.00" type="DEFAULT_PEDTYPE">
        <walk depart="0.00" departPos="221.00" arrival="6.00" arrivalPos="226.67" duration="6.00" routeLength="5.67" timeLoss="1.94" maxSpeed="1.40"/>
        <ride waitingTime="64.00" vehicle="busB.5" depart="70.00" arrival="106.00" arrivalPos="231.67" duration="36.00" routeLength="441.48" timeLoss="4.22"/>
        <walk depart="106.00" departPos="231.67" arrival="122.00" arrivalPos="250.00" duration="16.00" routeLength="18.33" timeLoss="2.80" maxSpeed="1.39"/>
    </personinfo>
    <personinfo id="B35" depart="0.00" type="DEFAULT_PEDTYPE">
        <walk depart="0.00" departPos="221.00" arrival="6.00" arrivalPos="226.67" duration="6.00" routeLength="5.67" timeLoss="2.17" maxSpeed="1.48"/>
        <ride waitingTime="64.00" vehicle="busB.5" depart="70.00" arrival="106.00" arrivalPos="231.67" duration="36.00" routeLength="441.48" timeLoss="4.22"/>
        <walk depart="106.00" departPos="231.67" arrival="122.00" arrivalPos="250.00" duration="16.00" routeLength="18.33" timeLoss="2.80" maxSpeed="1.39"/>
    </personinfo>
    <personinfo id="B65" depart="0.00" type="DEFAULT_PEDTYPE">
        <walk depart="0.00" departPos="221.00" arrival="7.00" arrivalPos="226.67" duration="7.00" routeLength="5.67" timeLoss="2.67" maxSpeed="1.31"/>
        <ride waitingTime="20.00" vehicle="busB.3" depart="27.00" arrival="108.00" arrivalPos="231.67" duration="81.00" routeLength="884.82" timeLoss="8.30"/>
        <walk depart="108.00" departPos="231.67" arrival="123.00" arrivalPos="250.00" duration="15.00" routeLength="18.33" timeLoss="1.80" maxSpeed="1.39"/>
    </personinfo>
    <personinfo id="B42" depart="0.00" type="DEFAULT_PEDTYPE">
        <walk depart="0.00" departPos="221.00" arrival="6.00" arrivalPos="226.67" duration="6.00" routeLength="5.67" timeLoss="2.21" maxSpeed="1.50"/>
        <ride waitingTime="20.00" vehicle="busB.4" depart="26.00" arrival="109.00" arrivalPos="231.67" duration="83.00" routeLength="885.51" timeLoss="8.25"/>
        <walk depart="109.00" departPos="231.67" arrival="124.00" arrivalPos="250.00" duration="15.00" routeLength="18.33" timeLoss="1.80" maxSpeed="1.39"/>
    </personinfo>
    <personinfo id="B78" depart="0.00" type="DEFAULT_PEDTYPE">
        <walk depart="0.00" departPos="221.00" arrival="11.00" arrivalPos="226.67" duration="11.00" routeLength="5.67" timeLoss="6.32" maxSpeed="1.21"/>
        <ride waitingTime="61.00" vehicle="busB.3" depart="72.00" arrival="109.00" arrivalPos="231.67" duration="37.00" routeLength="443.34" timeLoss="4.08"/>
        <walk depart="109.00" departPos="231.67" arrival="124.00" arrivalPos="250.00" duration="15.00" routeLength="18.33" timeLoss="1.80" maxSpeed="1.39"/>
    </personinfo>
    <personinfo id="B47" depart="0.00" type="DEFAULT_PEDTYPE">
        <walk depart="0.00" departPos="221.00" arrival="9.00" arrivalPos="226.67" duration="9.00" routeLength="5.67" timeLoss="4.94" maxSpeed="1.39"/>
        <ride waitingTime="17.00" vehicle="busB.4" depart="26.00" arrival="109.00" arrivalPos="231.67" duration="83.00" routeLength="885.51" timeLoss="8.25"/>
        <walk depart="109.00" departPos="231.67" arrival="125.00" arrivalPos="250.00" duration="16.00" routeLength="18.33" timeLoss="2.80" maxSpeed="1.39"/>
    </personinfo>
    <personinfo id="B52" depart="0.00" type="DEFAULT_PEDTYPE">
        <walk depart="0.00" departPos="221.00" arrival="6.00" arrivalPos="226.67" duration="6.00" routeLength="5.67" timeLoss="1.45" maxSpeed="1.24"/>
        <ride waitingTime="64.00" vehicle="busB.4" depart="70.00" arrival="110.00" arrivalPos="231.67" duration="40.00" routeLength="442.17" timeLoss="4.17"/>
        <walk depart="110.00" departPos="231.67" arrival="125.00" arrivalPos="250.00" duration="15.00" routeLength="18.33" timeLoss="1.80" maxSpeed="1.39"/>
    </personinfo>
    <personinfo id="BStop8.2" depart="41.62" type="DEFAULT_PEDTYPE">
        <walk depart="42.00" departPos="200.00" arrival="64.00" arrivalPos="226.67" duration="22.00" routeLength="26.67" timeLoss="2.79" maxSpeed="1.39"/>
        <ride waitingTime="8.00" vehicle="busB.3" depart="72.00" arrival="109.00" arrivalPos="231.67" duration="37.00" routeLength="443.34" timeLoss="4.08"/>
        <walk depart="109.00" departPos="231.67" arrival="125.00" arrivalPos="250.00" duration="16.00" routeLength="18.33" timeLoss="2.80" maxSpeed="1.39"/>
    </personinfo>
    <personinfo id="BStop6.2" depart="37.24" type="DEFAULT_PEDTYPE">
        <walk depart="38.00" departPos="200.00" arrival="62.00" arrivalPos="226.67" duration="24.00" routeLength="26.67" timeLoss="2.45" maxSpeed="1.24"/>
        <ride waitingTime="8.00" vehicle="busB.4" depart="70.00" arrival="110.00" arrivalPos="231.67" duration="40.00" routeLength="442.17" timeLoss="4.17"/>
        <walk depart="110.00" departPos="231.67" arrival="126.00" arrivalPos="250.00" duration="16.00" routeLength="18.33" timeLoss="2.80" maxSpeed="1.39"/>
    </personinfo>
    <personinfo id="B81" depart="0.00" type="DEFAULT_PEDTYPE">
        <walk depart="0.00" departPos="221.00" arrival="5.00" arrivalPos="226.67" duration="5.00" routeLength="5.67" timeLoss="0.69" maxSpeed="1.32"/>
        <ride waitingTime="21.00" vehicle="busB.2" depart="26.00" arrival="115.00" arrivalPos="231.67" duration="89.00" routeLength="886.66" timeLoss="17.34"/>
        <walk depart="115.00" departPos="231.67" arrival="130.00" arrivalPos="250.00" duration="15.00" routeLength="18.33" timeLoss="1.80" maxSpeed="1.39"/>
    </personinfo>
    <personinfo id="B90" depart="0.00" type="DEFAULT_PEDTYPE">
        <walk depart="0.00" departPos="221.00" arrival="9.00" arrivalPos="226.67" duration="9.00" routeLength="5.67" timeLoss="4.85" maxSpeed="1.37"/>
        <ride waitingTime="17.00" vehicle="busB.2" depart="26.00" arrival="115.00" arrivalPos="231.67" duration="89.00" routeLength="886.66" timeLoss="17.34"/>
        <walk depart="115.00" departPos="231.67" arrival="130.00" arrivalPos="250.00" duration="15.00" routeLength="18.33" timeLoss="1.80" maxSpeed="1.39"/>
    </personinfo>
    <personinfo id="B3" depart="0.00" type="DEFAULT_PEDTYPE">
        <walk depart="0.00" departPos="221.00" arrival="6.00" arrivalPos="226.67" duration="6.00" routeLength="5.67" timeLoss="2.04" maxSpeed="1.43"/>
        <ride waitingTime="20.00" vehicle="busB.0" depart="26.00" arrival="117.00" arrivalPos="231.67" duration="91.00" routeLength="886.67" timeLoss="8.17"/>
        <walk depart="117.00" departPos="231.67" arrival="132.00" arrivalPos="250.00" duration="15.00" routeLength="18.33" timeLoss="1.80" maxSpeed="1.39"/>
    </personinfo>
    <personinfo id="B7" depart="0.00" type="DEFAULT_PEDTYPE">
        <walk depart="0.00" departPos="221.00" arrival="10.00" arrivalPos="226.67" duration="10.00" routeLength="5.67" timeLoss="6.05" maxSpeed="1.43"/>
        <ride waitingTime="16.00" vehicle="busB.0" depart="26.00" arrival="117.00" arrivalPos="231.67" duration="91.00" routeLength="886.67" timeLoss="8.17"/>
        <walk depart="117.00" departPos="231.67" arrival="133.00" arrivalPos="250.00" duration="16.00" routeLength="18.33" timeLoss="2.80" maxSpeed="1.39"/>
    </personinfo>
    <personinfo id="B13" depart="0.00" type="DEFAULT_PEDTYPE">
        <walk depart="0.00" departPos="221.00" arrival="6.00" arrivalPos="226.67" duration="6.00" routeLength="5.67" timeLoss="1.75" maxSpeed="1.33"/>
        <ride waitingTime="75.00" vehicle="busB.0" depart="81.00" arrival="118.00" arrivalPos="231.67" duration="37.00" routeLength="443.34" timeLoss="4.08"/>
        <walk depart="118.00" departPos="231.67" arrival="133.00" arrivalPos="250.00" duration="15.00" routeLength="18.33" timeLoss="1.80" maxSpeed="1.39"/>
    </personinfo>
    <personinfo id="B16" depart="0.00" type="DEFAULT_PEDTYPE">
        <walk depart="0.00" departPos="221.00" arrival="7.00" arrivalPos="226.67" duration="7.00" routeLength="5.67" timeLoss="2.97" maxSpeed="1.41"/>
        <ride waitingTime="74.00" vehicle="busB.0" depart="81.00" arrival="118.00" arrivalPos="231.67" duration="37.00" routeLength="443.34" timeLoss="4.08"/>
        <walk depart="118.00" departPos="231.67" arrival="134.00" arrivalPos="250.00" duration="16.00" routeLength="18.33" timeLoss="2.80" maxSpeed="1.39"/>
    </personinfo>
    <personinfo id="B18" depart="0.00" type="DEFAULT_PEDTYPE">
        <walk depart="0.00" departPos="221.00" arrival="8.00" arrivalPos="226.67" duration="8.00" routeLength="5.67" timeLoss="3.98" maxSpeed="1.41"/>
        <ride waitingTime="73.00" vehicle="busB.0" depart="81.00" arrival="119.00" arrivalPos="231.67" duration="38.00" routeLength="443.34" timeLoss="4.08"/>
        <walk depart="119.00" departPos="231.67" arrival="135.00" arrivalPos="250.00" duration="16.00" routeLength="18.33" timeLoss="2.80" maxSpeed="1.39"/>
    </personinfo>
    <personinfo id="p13" depart="0.00" type="DEFAULT_PEDTYPE">
        <walk depart="0.00" departPos="221.00" arrival="6.00" arrivalPos="226.67" duration="6.00" routeLength="5.67" timeLoss="2.10" maxSpeed="1.45"/>
        <ride waitingTime="56.00" vehicle="bus.0" depart="62.00" arrival="126.00" arrivalPos="231.67" duration="64.00" routeLength="886.67" timeLoss="8.81"/>
        <walk depart="126.00" departPos="231.67" arrival="141.00" arrivalPos="250.00" duration="15.00" routeLength="18.33" timeLoss="1.80" maxSpeed="1.39"/>
    </personinfo>
    <personinfo id="p24" depart="0.00" type="DEFAULT_PEDTYPE">
        <walk depart="0.00" departPos="221.00" arrival="8.00" arrivalPos="226.67" duration="8.00" routeLength="5.67" timeLoss="3.41" maxSpeed="1.24"/>
        <ride waitingTime="16.00" vehicle="bus.5" depart="24.00" arrival="126.00" arrivalPos="231.67" duration="102.00" routeLength="1330.00" timeLoss="13.22"/>
        <walk depart="126.00" departPos="231.67" arrival="141.00" arrivalPos="250.00" duration="15.00" routeLength="18.33" timeLoss="1.80" maxSpeed="1.39"/>
    </personinfo>
    <personinfo id="p20" depart="0.00" type="DEFAULT_PEDTYPE">