<?xml version="1.0" encoding="UTF-8"?>

<!-- generated on 2024-10-16 19:39:57 by Eclipse SUMO sumo Version 1.14.1
<configuration xmlns:xsi="http://www.w3.org/2001/XMLSchema-instance" xsi:noNamespaceSchemaLocation="http://sumo.dlr.de/xsd/sumoConfiguration.xsd">

    <input>
        <net-file value="singaporeRing/sumo/singaporeInitial.net.xml"/>
        <route-files value="singaporeRing/sumo/newFlows.rou.xml"/>
        <additional-files value="singaporeRing/sumo/busstops.xml"/>
    </input>

    <output>
        <tripinfo-output value="tripinfo.xml"/>
    </output>

    <processing>
        <no-internal-links value="true"/>
        <time-to-teleport value="550"/>
    </processing>

    <report>
        <no-warnings value="true"/>
    </report>

    <traci_server>
        <remote-port value="58124"/>
    </traci_server>

</configuration>
-->

<tripinfos xmlns:xsi="http://www.w3.org/2001/XMLSchema-instance" xsi:noNamespaceSchemaLocation="http://sumo.dlr.de/xsd/tripinfo_file.xsd">
    <personinfo id="410482491.43.12223" depart="12223.00" type="DEFAULT_PEDTYPE">
        <walk depart="-1" departPos="0.00" arrival="-1" arrivalPos="-1" duration="-1" routeLength="-1" timeLoss="0.00" maxSpeed="1.39"/>
        <ride waitingTime="545.00" vehicle="bus_43:0.16" depart="12769.00" arrival="16204.00" arrivalPos="21.47" duration="3435.00" routeLength="12270.67" timeLoss="1.32"/>
    </personinfo>
    <personinfo id="410460005.22.13267" depart="13267.00" type="DEFAULT_PEDTYPE">
        <walk depart="-1" departPos="0.00" arrival="-1" arrivalPos="-1" duration="-1" routeLength="-1" timeLoss="0.00" maxSpeed="1.39"/>
        <ride waitingTime="234.00" vehicle="bus_22:0.0" depart="13731.00" arrival="16211.00" arrivalPos="323.21" duration="2480.00" routeLength="9241.61" timeLoss="2.30"/>
    </personinfo>
    <personinfo id="410462291.43.15319" depart="15319.00" type="DEFAULT_PEDTYPE">
        <walk depart="-1" departPos="0.00" arrival="-1" arrivalPos="-1" duration="-1" routeLength="-1" timeLoss="0.00" maxSpeed="1.39"/>
        <ride waitingTime="373.00" vehicle="bus_43:0.3" depart="16024.00" arrival="16222.00" arrivalPos="205.32" duration="198.00" routeLength="729.92" timeLoss="2.42"/>
    </personinfo>
    <personinfo id="410459904.22.14371" depart="14371.00" type="DEFAULT_PEDTYPE">
        <walk depart="-1" departPos="0.00" arrival="-1" arrivalPos="-1" duration="-1" routeLength="-1" timeLoss="0.00" maxSpeed="1.39"/>
        <ride waitingTime="231.00" vehicle="bus_22:0.1" depart="14603.00" arrival="16232.00" arrivalPos="98.67" duration="1629.00" routeLength="5973.04" timeLoss="3.86"/>
    </personinfo>
    <personinfo id="410462211.43.12244" depart="12244.00" type="DEFAULT_PEDTYPE">
        <walk depart="-1" departPos="0.00" arrival="-1" arrivalPos="-1" duration="-1" routeLength="-1" timeLoss="0.00" maxSpeed="1.39"/>
        <ride waitingTime="38.00" vehicle="bus_43:0.18" depart="12283.00" arrival="16244.00" arrivalPos="131.22" duration="3961.00" routeLength="14029.31" timeLoss="4.87"/>
    </personinfo>
    <personinfo id="410482568.43.13797" depart="13797.00" type="DEFAULT_PEDTYPE">
        <walk depart="-1" departPos="0.00" arrival="-1" arrivalPos="-1" duration="-1" routeLength="-1" timeLoss="0.00" maxSpeed="1.39"/>
        <ride waitingTime="33.00" vehicle="bus_43:0.18" depart="13831.00" arrival="16244.00" arrivalPos="131.22" duration="2413.00" routeLength="8666.31" timeLoss="4.87"/>
    </personinfo>
    <personinfo id="410486955.43.12701" depart="12701.00" type="DEFAULT_PEDTYPE">
        <walk depart="-1" departPos="0.00" arrival="-1" arrivalPos="-1" duration="-1" routeLength="-1" timeLoss="0.00" maxSpeed="1.39"/>
        <ride waitingTime="43.00" vehicle="bus_43:0.18" depart="12745.00" arrival="16244.00" arrivalPos="131.22" duration="3499.00" routeLength="12518.48" timeLoss="4.87"/>
    </personinfo>
    <personinfo id="1849631331.43.12129" depart="12129.00" type="DEFAULT_PEDTYPE">
        <walk depart="-1" departPos="0.00" arrival="-1" arrivalPos="-1" duration="-1" routeLength="-1" timeLoss="0.00" maxSpeed="1.39"/>
        <ride waitingTime="155.00" vehicle="bus_43:0.20" depart="12285.00" arrival="16267.00" arrivalPos="21.14" duration="3982.00" routeLength="13939.82" timeLoss="5.65"/>
    </personinfo>
    <personinfo id="2429952037.43.11978" depart="11978.00" type="DEFAULT_PEDTYPE">
        <walk depart="-1" departPos="0.00" arrival="-1" arrivalPos="-1" duration="-1" routeLength="-1" timeLoss="0.00" maxSpeed="1.39"/>
        <ride waitingTime="558.00" vehicle="bus_43:0.20" depart="12941.00" arrival="16268.00" arrivalPos="21.14" duration="3327.00" routeLength="11568.55" timeLoss="5.65"/>
    </personinfo>
    <personinfo id="410462293.43.13247" depart="13247.00" type="DEFAULT_PEDTYPE">
        <walk depart="-1" departPos="0.00" arrival="-1" arrivalPos="-1" duration="-1" routeLength="-1" timeLoss="0.00" maxSpeed="1.39"/>
        <ride waitingTime="104.00" vehicle="bus_43:0.20" depart="13352.00" arrival="16268.00" arrivalPos="21.14" duration="2916.00" routeLength="10117.19" timeLoss="5.65"/>
    </personinfo>
    <personinfo id="410475114.43.14220" depart="14220.00" type="DEFAULT_PEDTYPE">
        <walk depart="-1" departPos="0.00" arrival="-1" arrivalPos="-1" duration="-1" routeLength="-1" timeLoss="0.00" maxSpeed="1.39"/>
        <ride waitingTime="372.00" vehicle="bus_43:0.20" depart="14593.00" arrival="16269.00" arrivalPos="21.14" duration="1676.00" routeLength="5966.06" timeLoss="5.65"/>
    </personinfo>
    <personinfo id="410486991.43.13562" depart="13562.00" type="DEFAULT_PEDTYPE">
        <walk depart="-1" departPos="0.00" arrival="-1" arrivalPos="-1" duration="-1" routeLength="-1" timeLoss="0.00" maxSpeed="1.39"/>
        <ride waitingTime="247.00" vehicle="bus_43:0.20" depart="13810.00" arrival="16269.00" arrivalPos="21.14" duration="2459.00" routeLength="8640.08" timeLoss="5.65"/>
    </personinfo>
    <personinfo id="410486991.43.13736" depart="13736.00" type="DEFAULT_PEDTYPE">
        <walk depart="-1" departPos="0.00" arrival="-1" arrivalPos="-1" duration="-1" routeLength="-1" timeLoss="0.00" maxSpeed="1.39"/>
        <ride waitingTime="73.00" vehicle="bus_43:0.20" depart="13810.00" arrival="16270.00" arrivalPos="21.14" duration="2460.00" routeLength="8640.08" timeLoss="5.65"/>
    </personinfo>
    <personinfo id="410460005.22.14728" depart="14728.00" type="DEFAULT_PEDTYPE">
        <walk depart="-1" departPos="0.00" arrival="-1" arrivalPos="-1" duration="-1" routeLength="-1" timeLoss="0.00" maxSpeed="1.39"/>
        <ride waitingTime="675.00" vehicle="bus_22:0.3" depart="15632.00" arrival="16280.00" arrivalPos="26.17" duration="648.00" routeLength="2323.39" timeLoss="6.17"/>
    </personinfo>
    <personinfo id="1849631331.43.15581" depart="15581.00" type="DEFAULT_PEDTYPE">
        <walk depart="-1" departPos="0.00" arrival="-1" arrivalPos="-1" duration="-1" routeLength="-1" timeLoss="0.00" maxSpeed="1.39"/>
        <ride waitingTime="374.00" vehicle="bus_43:0.5" depart="15956.00" arrival="16291.00" arrivalPos="47.21" duration="335.00" routeLength="1253.58" timeLoss="9.68"/>
    </personinfo>
    <personinfo id="1849631331.43.11809" depart="11809.00" type="DEFAULT_PEDTYPE">
        <walk depart="-1" departPos="0.00" arrival="-1" arrivalPos="-1" duration="-1" routeLength="-1" timeLoss="0.00" maxSpeed="1.39"/>
        <ride waitingTime="475.00" vehicle="bus_43:0.20" depart="12285.00" arrival="16293.00" arrivalPos="67.28" duration="4008.00" routeLength="13986.00" timeLoss="9.40"/>
    </personinfo>
    <personinfo id="410462211.43.13222" depart="13222.00" type="DEFAULT_PEDTYPE">
        <walk depart="-1" departPos="0.00" arrival="-1" arrivalPos="-1" duration="-1" routeLength="-1" timeLoss="0.00" maxSpeed="1.39"/>
        <ride waitingTime="248.00" vehicle="bus_43:0.20" depart="13471.00" arrival="16293.00" arrivalPos="67.28" duration="2822.00" routeLength="9738.15" timeLoss="9.40"/>
    </personinfo>
    <personinfo id="4430976208.43.13860" depart="13860.00" type="DEFAULT_PEDTYPE">
        <walk depart="-1" departPos="0.00" arrival="-1" arrivalPos="-1" duration="-1" routeLength="-1" timeLoss="0.00" maxSpeed="1.39"/>
        <ride waitingTime="205.00" vehicle="bus_43:0.20" depart="14066.00" arrival="16293.00" arrivalPos="67.28" duration="2227.00" routeLength="7819.89" timeLoss="9.40"/>
    </personinfo>
    <personinfo id="410460005.22.14204" depart="14204.00" type="DEFAULT_PEDTYPE">
        <walk depart="-1" departPos="0.00" arrival="-1" arrivalPos="-1" duration="-1" routeLength="-1" timeLoss="0.00" maxSpeed="1.39"/>
        <ride waitingTime="408.00" vehicle="bus_22:0.2" depart="14842.00" arrival="16297.00" arrivalPos="13.85" duration="1455.00" routeLength="5296.69" timeLoss="9.87"/>
    </personinfo>
    <personinfo id="410460005.22.14331" depart="14331.00" type="DEFAULT_PEDTYPE">
        <walk depart="-1" departPos="0.00" arrival="-1" arrivalPos="-1" duration="-1" routeLength="-1" timeLoss="0.00" maxSpeed="1.39"/>
        <ride waitingTime="281.00" vehicle="bus_22:0.2" depart="14842.00" arrival="16297.00" arrivalPos="13.85" duration="1455.00" routeLength="5296.69" timeLoss="9.87"/>
    </personinfo>
    <personinfo id="410459901.22.13639" depart="13639.00" type="DEFAULT_PEDTYPE">
        <walk depart="-1" departPos="0.00" arrival="-1" arrivalPos="-1" duration="-1" routeLength="-1" timeLoss="0.00" maxSpeed="1.39"/>
        <ride waitingTime="324.00" vehicle="bus_22:0.1" depart="14403.00" arrival="16306.00" arrivalPos="102.56" duration="1903.00" routeLength="6907.30" timeLoss="11.32"/>
    </personinfo>
    <personinfo id="410459904.22.14423" depart="14423.00" type="DEFAULT_PEDTYPE">
        <walk depart="-1" departPos="0.00" arrival="-1" arrivalPos="-1" duration="-1" routeLength="-1" timeLoss="0.00" maxSpeed="1.39"/>
        <ride waitingTime="179.00" vehicle="bus_22:0.1" depart="14603.00" arrival="16306.00" arrivalPos="102.56" duration="1703.00" routeLength="6237.70" timeLoss="11.32"/>
    </personinfo>
    <personinfo id="410462211.43.13825" depart="13825.00" type="DEFAULT_PEDTYPE">
        <walk depart="-1" departPos="0.00" arrival="-1" arrivalPos="-1" duration="-1" routeLength="-1" timeLoss="0.00" maxSpeed="1.39"/>
        <ride waitingTime="550.00" vehicle="bus_43:0.0" depart="14376.00" arrival="16314.00" arrivalPos="98.68" duration="1938.00" routeLength="6450.25" timeLoss="9.01"/>
    </personinfo>
    <personinfo id="410482572.22.15872" depart="15872.00" type="DEFAULT_PEDTYPE">
        <walk depart="-1" departPos="0.00" arrival="-1" arrivalPos="-1" duration="-1" routeLength="-1" timeLoss="0.00" maxSpeed="1.39"/>
        <ride waitingTime="71.00" vehicle="bus_43:0.0" depart="15944.00" arrival="16314.00" arrivalPos="98.68" duration="370.00" routeLength="1283.15" timeLoss="9.01"/>
    </personinfo>
    <personinfo id="2429952037.43.10549" depart="10549.00" type="DEFAULT_PEDTYPE">
        <walk depart="-1" departPos="0.00" arrival="-1" arrivalPos="-1" duration="-1" routeLength="-1" timeLoss="0.00" maxSpeed="1.39"/>
        <ride waitingTime="190.00" vehicle="bus_43:0.17" depart="11145.00" arrival="16328.00" arrivalPos="767.35" duration="5183.00" routeLength="18462.73" timeLoss="11.54"/>
    </personinfo>
    <personinfo id="410482562.43.12969" depart="12969.00" type="DEFAULT_PEDTYPE">
        <walk depart="-1" departPos="0.00" arrival="-1" arrivalPos="-1" duration="-1" routeLength="-1" timeLoss="0.00" maxSpeed="1.39"/>
        <ride waitingTime="404.00" vehicle="bus_43:0.17" depart="13374.00" arrival="16328.00" arrivalPos="767.35" duration="2954.00" routeLength="10706.95" timeLoss="11.54"/>
    </personinfo>
    <personinfo id="-410478273.43.15393" depart="15393.00" type="DEFAULT_PEDTYPE">
        <walk depart="-1" departPos="0.00" arrival="-1" arrivalPos="-1" duration="-1" routeLength="-1" timeLoss="0.00" maxSpeed="1.39"/>
        <ride waitingTime="290.00" vehicle="bus_43:0.19" depart="15684.00" arrival="16330.00" arrivalPos="59.55" duration="646.00" routeLength="2380.66" timeLoss="11.52"/>
    </personinfo>
    <personinfo id="1855320978.43.12819" depart="12819.00" type="DEFAULT_PEDTYPE">
        <walk depart="-1" departPos="0.00" arrival="-1" arrivalPos="-1" duration="-1" routeLength="-1" timeLoss="0.00" maxSpeed="1.39"/>
        <ride waitingTime="236.00" vehicle="bus_43:0.18" depart="13056.00" arrival="16339.00" arrivalPos="454.58" duration="3283.00" routeLength="11751.26" timeLoss="15.00"/>
    </personinfo>
    <personinfo id="410462291.43.11762" depart="11762.00" type="DEFAULT_PEDTYPE">
        <walk depart="-1" departPos="0.00" arrival="-1" arrivalPos="-1" duration="-1" routeLength="-1" timeLoss="0.00" maxSpeed="1.39"/>
        <ride waitingTime="305.00" vehicle="bus_43:0.18" depart="12398.00" arrival="16339.00" arrivalPos="454.58" duration="3941.00" routeLength="14030.70" timeLoss="15.00"/>
    </personinfo>
    <personinfo id="410459901.22.13354" depart="13354.00" type="DEFAULT_PEDTYPE">
        <walk depart="-1" departPos="0.00" arrival="-1" arrivalPos="-1" duration="-1" routeLength="-1" timeLoss="0.00" maxSpeed="1.39"/>
        <ride waitingTime="75.00" vehicle="bus_22:0.0" depart="13872.00" arrival="16348.00" arrivalPos="138.85" duration="2476.00" routeLength="9202.09" timeLoss="15.56"/>
    </personinfo>
    <personinfo id="410486991.43.16209" depart="16209.00" type="DEFAULT_PEDTYPE">
        <walk depart="16209.00" departPos="194.33" arrival="16210.00" arrivalPos="195.33" duration="1.00" routeLength="1.00" timeLoss="0.28" maxSpeed="1.39"/>
        <ride waitingTime="35.00" vehicle="bus_43:0.3" depart="16245.00" arrival="16370.00" arrivalPos="60.88" duration="125.00" routeLength="458.94" timeLoss="12.07"/>
    </personinfo>
    <personinfo id="410462762.22.15644" depart="15644.00" type="DEFAULT_PEDTYPE">
        <walk depart="-1" departPos="0.00" arrival="-1" arrivalPos="-1" duration="-1" routeLength="-1" timeLoss="0.00" maxSpeed="1.39"/>
        <ride waitingTime="12.00" vehicle="bus_22:0.10" depart="16177.00" arrival="16375.00" arrivalPos="80.50" duration="198.00" routeLength="724.14" timeLoss="13.51"/>
    </personinfo>
    <personinfo id="410465915.22.15305" depart="15305.00" type="DEFAULT_PEDTYPE">
        <walk depart="-1" departPos="0.00" arrival="-1" arrivalPos="-1" duration="-1" routeLength="-1" timeLoss="0.00" maxSpeed="1.39"/>
        <ride waitingTime="631.00" vehicle="bus_22:0.10" depart="16047.00" arrival="16375.00" arrivalPos="80.50" duration="328.00" routeLength="1181.84" timeLoss="13.51"/>
    </personinfo>
    <personinfo id="410465915.22.15932" depart="15932.00" type="DEFAULT_PEDTYPE">
        <walk depart="-1" departPos="0.00" arrival="-1" arrivalPos="-1" duration="-1" routeLength="-1" timeLoss="0.00" maxSpeed="1.39"/>
        <ride waitingTime="4.00" vehicle="bus_22:0.10" depart="16047.00" arrival="16376.00" arrivalPos="80.50" duration="329.00" routeLength="1181.84" timeLoss="13.51"/>
    </personinfo>
    <personinfo id="410465916.22.15727" depart="15727.00" type="DEFAULT_PEDTYPE">
        <walk depart="-1" departPos="0.00" arrival="-1" arrivalPos="-1" duration="-1" routeLength="-1" timeLoss="0.00" maxSpeed="1.39"/>
        <ride waitingTime="63.00" vehicle="bus_22:0.10" depart="15791.00" arrival="16376.00" arrivalPos="80.50" duration="585.00" routeLength="2056.24" timeLoss="13.51"/>
    </personinfo>
    <personinfo id="410465917.22.15313" depart="15313.00" type="DEFAULT_PEDTYPE">
        <walk depart="-1" departPos="0.00" arrival="-1" arrivalPos="-1" duration="-1" routeLength="-1" timeLoss="0.00" maxSpeed="1.39"/>
        <ride waitingTime="593.00" vehicle="bus_22:0.10" depart="15907.00" arrival="16377.00" arrivalPos="80.50" duration="470.00" routeLength="1660.94" timeLoss="13.51"/>
    </personinfo>
    <personinfo id="410486955.43.14878" depart="14878.00" type="DEFAULT_PEDTYPE">
        <walk depart="-1" departPos="0.00" arrival="-1" arrivalPos="-1" duration="-1" routeLength="-1" timeLoss="0.00" maxSpeed="1.39"/>
        <ride waitingTime="333.00" vehicle="bus_43:0.1" depart="15212.00" arrival="16392.00" arrivalPos="83.09" duration="1180.00" routeLength="4291.68" timeLoss="14.45"/>
    </personinfo>
    <personinfo id="1849631273.43.12608" depart="12608.00" type="DEFAULT_PEDTYPE">
        <walk depart="-1" departPos="0.00" arrival="-1" arrivalPos="-1" duration="-1" routeLength="-1" timeLoss="0.00" maxSpeed="1.39"/>
        <ride waitingTime="216.00" vehicle="bus_43:0.20" depart="13155.00" arrival="16417.00" arrivalPos="19.50" duration="3262.00" routeLength="11302.11" timeLoss="19.86"/>
    </personinfo>
    <personinfo id="1849631331.43.11789" depart="11789.00" type="DEFAULT_PEDTYPE">
        <walk depart="-1" departPos="0.00" arrival="-1" arrivalPos="-1" duration="-1" routeLength="-1" timeLoss="0.00" maxSpeed="1.39"/>
        <ride waitingTime="495.00" vehicle="bus_43:0.20" depart="12285.00" arrival="16417.00" arrivalPos="19.50" duration="4132.00" routeLength="14426.93" timeLoss="19.86"/>
    </personinfo>
    <personinfo id="410462291.43.12834" depart="12834.00" type="DEFAULT_PEDTYPE">
        <walk depart="-1" departPos="0.00" arrival="-1" arrivalPos="-1" duration="-1" routeLength="-1" timeLoss="0.00" maxSpeed="1.39"/>
        <ride waitingTime="421.00" vehicle="bus_43:0.20" depart="13588.00" arrival="16417.00" arrivalPos="19.50" duration="2829.00" routeLength="9857.07" timeLoss="19.86"/>
    </personinfo>
    <personinfo id="410486969.43.15126" depart="15126.00" type="DEFAULT_PEDTYPE">
        <walk depart="-1" departPos="0.00" arrival="-1" arrivalPos="-1" duration="-1" routeLength="-1" timeLoss="0.00" maxSpeed="1.39"/>
        <ride waitingTime="273.00" vehicle="bus_43:0.1" depart="15400.00" arrival="16417.00" arrivalPos="159.78" duration="1017.00" routeLength="3710.47" timeLoss="18.76"/>
    </personinfo>
    <personinfo id="410462211.43.13785" depart="13785.00" type="DEFAULT_PEDTYPE">
        <walk depart="-1" departPos="0.00" arrival="-1" arrivalPos="-1" duration="-1" routeLength="-1" timeLoss="0.00" maxSpeed="1.39"/>
        <ride waitingTime="590.00" vehicle="bus_43:0.0" depart="14376.00" arrival="16444.00" arrivalPos="258.31" duration="2068.00" routeLength="6870.65" timeLoss="18.47"/>
    </personinfo>
    <personinfo id="410482520.43.15541" depart="15541.00" type="DEFAULT_PEDTYPE">
        <walk depart="-1" departPos="0.00" arrival="-1" arrivalPos="-1" duration="-1" routeLength="-1" timeLoss="0.00" maxSpeed="1.39"/>
        <ride waitingTime="249.00" vehicle="bus_43:0.0" depart="15791.00" arrival="16444.00" arrivalPos="258.31" duration="653.00" routeLength="2263.95" timeLoss="18.47"/>
    </personinfo>
    <personinfo id="2429952037.43.11709" depart="11709.00" type="DEFAULT_PEDTYPE">
        <walk depart="-1" departPos="0.00" arrival="-1" arrivalPos="-1" duration="-1" routeLength="-1" timeLoss="0.00" maxSpeed="1.39"/>
        <ride waitingTime="241.00" vehicle="bus_43:0.19" depart="12356.00" arrival="16457.00" arrivalPos="76.84" duration="4101.00" routeLength="14355.82" timeLoss="22.61"/>
    </personinfo>
    <personinfo id="410486991.43.15638" depart="15638.00" type="DEFAULT_PEDTYPE">
        <walk depart="-1" departPos="0.00" arrival="-1" arrivalPos="-1" duration="-1" routeLength="-1" timeLoss="0.00" maxSpeed="1.39"/>
        <ride waitingTime="606.00" vehicle="bus_43:0.3" depart="16245.00" arrival="16488.00" arrivalPos="29.59" duration="243.00" routeLength="866.39" timeLoss="21.71"/>
    </personinfo>
    <personinfo id="4430976208.43.13325" depart="13325.00" type="DEFAULT_PEDTYPE">
        <walk depart="-1" departPos="0.00" arrival="-1" arrivalPos="-1" duration="-1" routeLength="-1" timeLoss="0.00" maxSpeed="1.39"/>
        <ride waitingTime="141.00" vehicle="bus_43:0.19" depart="13467.00" arrival="16530.00" arrivalPos="10.88" duration="3063.00" routeLength="10807.63" timeLoss="32.46"/>
    </personinfo>
    <personinfo id="410475114.22.15480" depart="15480.00" type="DEFAULT_PEDTYPE">
        <walk depart="-1" departPos="0.00" arrival="-1" arrivalPos="-1" duration="-1" routeLength="-1" timeLoss="0.00" maxSpeed="1.39"/>
        <ride waitingTime="3.00" vehicle="bus_22:0.1" depart="15484.00" arrival="16532.00" arrivalPos="29.16" duration="1048.00" routeLength="3818.07" timeLoss="31.09"/>
    </personinfo>
    <personinfo id="410462293.43.13914" depart="13914.00" type="DEFAULT_PEDTYPE">
        <walk depart="-1" departPos="0.00" arrival="-1" arrivalPos="-1" duration="-1" routeLength="-1" timeLoss="0.00" maxSpeed="1.39"/>
        <ride waitingTime="327.00" vehicle="bus_43:0.0" depart="14242.00" arrival="16534.00" arrivalPos="10.11" duration="2292.00" routeLength="7617.29" timeLoss="26.11"/>
    </personinfo>
    <personinfo id="410486955.43.14271" depart="14271.00" type="DEFAULT_PEDTYPE">
        <walk depart="-1" departPos="0.00" arrival="-1" arrivalPos="-1" duration="-1" routeLength="-1" timeLoss="0.00" maxSpeed="1.39"/>
        <ride waitingTime="596.00" vehicle="bus_43:0.0" depart="14868.00" arrival="16534.00" arrivalPos="10.11" duration="1666.00" routeLength="5681.29" timeLoss="26.11"/>
    </personinfo>
    <personinfo id="410462291.43.12795" depart="12795.00" type="DEFAULT_PEDTYPE">
        <walk depart="-1" departPos="0.00" arrival="-1" arrivalPos="-1" duration="-1" routeLength="-1" timeLoss="0.00" maxSpeed="1.39"/>
        <ride waitingTime="460.00" vehicle="bus_43:0.20" depart="13588.00" arrival="16544.00" arrivalPos="10.70" duration="2956.00" routeLength="10266.53" timeLoss="32.01"/>
    </personinfo>
    <personinfo id="410486969.43.13760" depart="13760.00" type="DEFAULT_PEDTYPE">
        <walk depart="-1" departPos="0.00" arrival="-1" arrivalPos="-1" duration="-1" routeLength="-1" timeLoss="0.00" maxSpeed="1.39"/>
        <ride waitingTime="395.00" vehicle="bus_43:0.20" depart="14156.00" arrival="16544.00" arrivalPos="10.70" duration="2388.00" routeLength="8419.69" timeLoss="32.01"/>
    </personinfo>
    <personinfo id="410486969.43.13978" depart="13978.00" type="DEFAULT_PEDTYPE">
        <walk depart="-1" departPos="0.00" arrival="-1" arrivalPos="-1" duration="-1" routeLength="-1" timeLoss="0.00" maxSpeed="1.39"/>
        <ride waitingTime="177.00" vehicle="bus_43:0.20" depart="14156.00" arrival="16544.00" arrivalPos="10.70" duration="2388.00" routeLength="8419.63" timeLoss="32.01"/>
    </personinfo>
    <personinfo id="410486991.43.13510" depart="13510.00" type="DEFAULT_PEDTYPE">
        <walk depart="-1" departPos="0.00" arrival="-1" arrivalPos="-1" duration="-1" routeLength="-1" timeLoss="0.00" maxSpeed="1.39"/>
        <ride waitingTime="299.00" vehicle="bus_43:0.20" depart="13810.00" arrival="16545.00" arrivalPos="10.70" duration="2735.00" routeLength="9536.57" timeLoss="32.01"/>
    </personinfo>
    <personinfo id="1531005322.22.14370" depart="14370.00" type="DEFAULT_PEDTYPE">
        <walk depart="-1" departPos="0.00" arrival="-1" arrivalPos="-1" duration="-1" routeLength="-1" timeLoss="0.00" maxSpeed="1.39"/>
        <ride waitingTime="326.00" vehicle="bus_22:0.11" depart="14697.00" arrival="16552.00" arrivalPos="10.73" duration="1855.00" routeLength="6665.67" timeLoss="32.85"/>
    </personinfo>
    <personinfo id="410465917.22.16295" depart="16295.00" type="DEFAULT_PEDTYPE">
        <walk depart="16295.00" departPos="21.70" arrival="16296.00" arrivalPos="22.70" duration="1.00" routeLength="1.00" timeLoss="0.28" maxSpeed="1.39"/>
        <ride waitingTime="126.00" vehicle="bus_22:0.11" depart="16422.00" arrival="16553.00" arrivalPos="10.73" duration="131.00" routeLength="479.12" timeLoss="13.16"/>
    </personinfo>
    <personinfo id="410460005.22.14450" depart="14450.00" type="DEFAULT_PEDTYPE">
        <walk depart="-1" departPos="0.00" arrival="-1" arrivalPos="-1" duration="-1" routeLength="-1" timeLoss="0.00" maxSpeed="1.39"/>
        <ride waitingTime="163.00" vehicle="bus_22:0.2" depart="14842.00" arrival="16554.00" arrivalPos="14.16" duration="1712.00" routeLength="6052.91" timeLoss="30.42"/>
    </personinfo>
    <personinfo id="410486991.43.15571" depart="15571.00" type="DEFAULT_PEDTYPE">
        <walk depart="-1" departPos="0.00" arrival="-1" arrivalPos="-1" duration="-1" routeLength="-1" timeLoss="0.00" maxSpeed="1.39"/>
        <ride waitingTime="54.00" vehicle="bus_43:0.2" depart="15626.00" arrival="16563.00" arrivalPos="176.35" duration="937.00" routeLength="3310.00" timeLoss="29.67"/>
    </personinfo>
    <personinfo id="410474348.43.14928" depart="14928.00" type="DEFAULT_PEDTYPE">
        <walk depart="-1" departPos="0.00" arrival="-1" arrivalPos="-1" duration="-1" routeLength="-1" timeLoss="0.00" maxSpeed="1.39"/>
        <ride waitingTime="224.00" vehicle="bus_43:0.3" depart="15153.00" arrival="16567.00" arrivalPos="11.12" duration="1414.00" routeLength="4944.19" timeLoss="33.00"/>
    </personinfo>
    <personinfo id="410460005.22.13433" depart="13433.00" type="DEFAULT_PEDTYPE">
        <walk depart="-1" departPos="0.00" arrival="-1" arrivalPos="-1" duration="-1" routeLength="-1" timeLoss="0.00" maxSpeed="1.39"/>
        <ride waitingTime="67.00" vehicle="bus_22:0.0" depart="13731.00" arrival="16570.00" arrivalPos="39.40" duration="2839.00" routeLength="10527.45" timeLoss="33.70"/>
    </personinfo>
    <personinfo id="410462103.22.13631" depart="13631.00" type="DEFAULT_PEDTYPE">
        <walk depart="-1" departPos="0.00" arrival="-1" arrivalPos="-1" duration="-1" routeLength="-1" timeLoss="0.00" maxSpeed="1.39"/>
        <ride waitingTime="286.00" vehicle="bus_22:0.10" depart="13918.00" arrival="16584.00" arrivalPos="267.81" duration="2666.00" routeLength="9564.25" timeLoss="29.95"/>
    </personinfo>
    <personinfo id="410462103.22.13722" depart="13722.00" type="DEFAULT_PEDTYPE">
        <walk depart="-1" departPos="0.00" arrival="-1" arrivalPos="-1" duration="-1" routeLength="-1" timeLoss="0.00" maxSpeed="1.39"/>
        <ride waitingTime="195.00" vehicle="bus_22:0.10" depart="13918.00" arrival="16584.00" arrivalPos="267.81" duration="2666.00" routeLength="9564.25" timeLoss="29.95"/>
    </personinfo>
    <personinfo id="410462762.22.15170" depart="15170.00" type="DEFAULT_PEDTYPE">
        <walk depart="-1" departPos="0.00" arrival="-1" arrivalPos="-1" duration="-1" routeLength="-1" timeLoss="0.00" maxSpeed="1.39"/>
        <ride waitingTime="483.00" vehicle="bus_22:0.10" depart="16177.00" arrival="16584.00" arrivalPos="267.81" duration="407.00" routeLength="1398.85" timeLoss="29.95"/>
    </personinfo>
    <personinfo id="410465916.22.15226" depart="15226.00" type="DEFAULT_PEDTYPE">
        <walk depart="-1" departPos="0.00" arrival="-1" arrivalPos="-1" duration="-1" routeLength="-1" timeLoss="0.00" maxSpeed="1.39"/>
        <ride waitingTime="564.00" vehicle="bus_22:0.10" depart="15791.00" arrival="16585.00" arrivalPos="267.81" duration="794.00" routeLength="2730.95" timeLoss="29.95"/>
    </personinfo>
    <personinfo id="410465916.22.15733" depart="15733.00" type="DEFAULT_PEDTYPE">
        <walk depart="-1" departPos="0.00" arrival="-1" arrivalPos="-1" duration="-1" routeLength="-1" timeLoss="0.00" maxSpeed="1.39"/>
        <ride waitingTime="57.00" vehicle="bus_22:0.10" depart="15791.00" arrival="16585.00" arrivalPos="267.81" duration="794.00" routeLength="2730.95" timeLoss="29.95"/>
    </personinfo>
    <personinfo id="410465917.22.15746" depart="15746.00" type="DEFAULT_PEDTYPE">
        <walk depart="-1" departPos="0.00" arrival="-1" arrivalPos="-1" duration="-1" routeLength="-1" timeLoss="0.00" maxSpeed="1.39"/>
        <ride waitingTime="160.00" vehicle="bus_22:0.10" depart="15907.00" arrival="16586.00" arrivalPos="267.81" duration="679.00" routeLength="2335.65" timeLoss="29.95"/>
    </personinfo>
    <personinfo id="410466111.22.15793" depart="15793.00" type="DEFAULT_PEDTYPE">
        <walk depart="-1" departPos="0.00" arrival="-1" arrivalPos="-1" duration="-1" routeLength="-1" timeLoss="0.00" maxSpeed="1.39"/>
        <ride waitingTime="609.00" vehicle="bus_22:0.10" depart="16403.00" arrival="16586.00" arrivalPos="267.81" duration="183.00" routeLength="674.78" timeLoss="16.44"/>
    </personinfo>
    <personinfo id="410466111.22.15797" depart="15797.00" type="DEFAULT_PEDTYPE">
        <walk depart="-1" departPos="0.00" arrival="-1" arrivalPos="-1" duration="-1" routeLength="-1" timeLoss="0.00" maxSpeed="1.39"/>
        <ride waitingTime="605.00" vehicle="bus_22:0.10" depart="16403.00" arrival="16587.00" arrivalPos="267.81" duration="184.00" routeLength="674.78" timeLoss="16.44"/>
    </personinfo>
    <personinfo id="410466111.22.15806" depart="15806.00" type="DEFAULT_PEDTYPE">
        <walk depart="-1" departPos="0.00" arrival="-1" arrivalPos="-1" duration="-1" routeLength="-1" timeLoss="0.00" maxSpeed="1.39"/>
        <ride waitingTime="596.00" vehicle="bus_22:0.10" depart="16403.00" arrival="16587.00" arrivalPos="267.81" duration="184.00" routeLength="674.78" timeLoss="16.44"/>
    </personinfo>
    <personinfo id="410466111.22.15878" depart="15878.00" type="DEFAULT_PEDTYPE">
        <walk depart="-1" departPos="0.00" arrival="-1" arrivalPos="-1" duration="-1" routeLength="-1" timeLoss="0.00" maxSpeed="1.39"/>
        <ride waitingTime="524.00" vehicle="bus_22:0.10" depart="16403.00" arrival="16588.00" arrivalPos="267.81" duration="185.00" routeLength="674.72" timeLoss="16.44"/>
    </personinfo>
    <personinfo id="410466111.22.15991" depart="15991.00" type="DEFAULT_PEDTYPE">
        <walk depart="-1" departPos="0.00" arrival="-1" arrivalPos="-1" duration="-1" routeLength="-1" timeLoss="0.00" maxSpeed="1.39"/>
        <ride waitingTime="411.00" vehicle="bus_22:0.10" depart="16403.00" arrival="16588.00" arrivalPos="267.81" duration="185.00" routeLength="674.72" timeLoss="16.44"/>
    </personinfo>
    <personinfo id="410466111.22.15997" depart="15997.00" type="DEFAULT_PEDTYPE">
        <walk depart="-1" departPos="0.00" arrival="-1" arrivalPos="-1" duration="-1" routeLength="-1" timeLoss="0.00" maxSpeed="1.39"/>