<?xml version="1.0" encoding="UTF-8"?>

<!-- generated on 2024-04-16 03:56:31 by Eclipse SUMO sumo Version 1.14.1
<configuration xmlns:xsi="http://www.w3.org/2001/XMLSchema-instance" xsi:noNamespaceSchemaLocation="http://sumo.dlr.de/xsd/sumoConfiguration.xsd">

    <input>
        <net-file value="singapore/singapore.net.xml"/>
        <route-files value="singapore/busFlows.rou.xml"/>
        <additional-files value="singapore/busstops.xml"/>
    </input>

    <output>
        <tripinfo-output value="tripinfo.xml"/>
    </output>

    <processing>
        <no-internal-links value="true"/>
    </processing>

    <traci_server>
        <remote-port value="58816"/>
    </traci_server>

</configuration>
-->

<tripinfos xmlns:xsi="http://www.w3.org/2001/XMLSchema-instance" xsi:noNamespaceSchemaLocation="http://sumo.dlr.de/xsd/tripinfo_file.xsd">
    <personinfo id="410460005.22.329" depart="329.00" type="DEFAULT_PEDTYPE">
        <walk depart="329.00" departPos="286.81" arrival="559.00" arrivalPos="0.00" duration="230.00" routeLength="286.81" timeLoss="23.50" maxSpeed="1.39"/>
        <ride waitingTime="43.00" vehicle="bus_22:0.1" depart="602.00" arrival="891.00" arrivalPos="34.17" duration="289.00" routeLength="1075.60" timeLoss="26.66"/>
    </personinfo>
    <personinfo id="1847853709.43.221" depart="221.00" type="DEFAULT_PEDTYPE">
        <walk depart="221.00" departPos="16.23" arrival="222.00" arrivalPos="17.23" duration="1.00" routeLength="1.00" timeLoss="0.28" maxSpeed="1.39"/>
        <ride waitingTime="440.00" vehicle="bus_43:0.1" depart="662.00" arrival="1931.00" arrivalPos="61.19" duration="1269.00" routeLength="4458.62" timeLoss="90.54"/>
    </personinfo>
    <personinfo id="410475114.22.561" depart="561.00" type="DEFAULT_PEDTYPE">
        <walk depart="561.00" departPos="84.99" arrival="562.00" arrivalPos="85.99" duration="1.00" routeLength="1.00" timeLoss="0.28" maxSpeed="1.39"/>
        <ride waitingTime="656.00" vehicle="bus_22:0.0" depart="1218.00" arrival="1943.00" arrivalPos="98.65" duration="725.00" routeLength="2724.30" timeLoss="59.55"/>
    </personinfo>
    <personinfo id="410462101.22.505" depart="505.00" type="DEFAULT_PEDTYPE">
        <walk depart="505.00" departPos="11.46" arrival="506.00" arrivalPos="12.46" duration="1.00" routeLength="1.00" timeLoss="0.28" maxSpeed="1.39"/>
        <ride waitingTime="463.00" vehicle="bus_22:0.0" depart="969.00" arrival="2018.00" arrivalPos="102.56" duration="1049.00" routeLength="3750.89" timeLoss="91.17"/>
    </personinfo>
    <personinfo id="410475114.22.813" depart="813.00" type="DEFAULT_PEDTYPE">
        <walk depart="813.00" departPos="84.99" arrival="814.00" arrivalPos="85.99" duration="1.00" routeLength="1.00" timeLoss="0.28" maxSpeed="1.39"/>
        <ride waitingTime="404.00" vehicle="bus_22:0.0" depart="1218.00" arrival="2018.00" arrivalPos="102.56" duration="800.00" routeLength="2988.97" timeLoss="68.00"/>
    </personinfo>
    <personinfo id="410482564.43.423" depart="423.00" type="DEFAULT_PEDTYPE">
        <walk depart="423.00" departPos="87.68" arrival="424.00" arrivalPos="88.68" duration="1.00" routeLength="1.00" timeLoss="0.28" maxSpeed="1.39"/>
        <ride waitingTime="1521.00" vehicle="bus_22:0.0" depart="1945.00" arrival="2018.00" arrivalPos="102.56" duration="73.00" routeLength="264.71" timeLoss="8.45"/>
    </personinfo>
    <personinfo id="410462211.43.1121" depart="1121.00" type="DEFAULT_PEDTYPE">
        <walk depart="1121.00" departPos="18.63" arrival="1122.00" arrivalPos="19.63" duration="1.00" routeLength="1.00" timeLoss="0.28" maxSpeed="1.39"/>
        <ride waitingTime="533.00" vehicle="bus_43:0.0" depart="1655.00" arrival="2032.00" arrivalPos="205.29" duration="377.00" routeLength="1051.85" timeLoss="27.47"/>
    </personinfo>
    <personinfo id="410482564.43.1725" depart="1725.00" type="DEFAULT_PEDTYPE">
        <walk depart="1725.00" departPos="87.68" arrival="1726.00" arrivalPos="88.68" duration="1.00" routeLength="1.00" timeLoss="0.28" maxSpeed="1.39"/>
        <ride waitingTime="219.00" vehicle="bus_22:0.0" depart="1945.00" arrival="2064.00" arrivalPos="258.31" duration="119.00" routeLength="420.46" timeLoss="14.46"/>
    </personinfo>
    <personinfo id="410462103.22.1298" depart="1298.00" type="DEFAULT_PEDTYPE">
        <walk depart="1298.00" departPos="51.46" arrival="1299.00" arrivalPos="52.46" duration="1.00" routeLength="1.00" timeLoss="0.28" maxSpeed="1.39"/>
        <ride waitingTime="286.00" vehicle="bus_22:0.1" depart="1585.00" arrival="2163.00" arrivalPos="31.75" duration="578.00" routeLength="2163.12" timeLoss="49.42"/>
    </personinfo>
    <personinfo id="410459904.22.2035" depart="2035.00" type="DEFAULT_PEDTYPE">
        <walk depart="2035.00" departPos="19.22" arrival="2036.00" arrivalPos="20.22" duration="1.00" routeLength="1.00" timeLoss="0.28" maxSpeed="1.39"/>
        <ride waitingTime="78.00" vehicle="bus_22:0.3" depart="2114.00" arrival="2230.00" arrivalPos="48.70" duration="116.00" routeLength="431.05" timeLoss="10.88"/>
    </personinfo>
    <personinfo id="410483103.22.770" depart="770.00" type="DEFAULT_PEDTYPE">
        <walk depart="770.00" departPos="165.36" arrival="771.00" arrivalPos="166.36" duration="1.00" routeLength="1.00" timeLoss="0.28" maxSpeed="1.39"/>
        <ride waitingTime="620.00" vehicle="bus_22:0.0" depart="1391.00" arrival="2335.00" arrivalPos="29.18" duration="944.00" routeLength="3182.35" timeLoss="72.84"/>
    </personinfo>
    <personinfo id="410462103.22.1554" depart="1554.00" type="DEFAULT_PEDTYPE">
        <walk depart="1554.00" departPos="51.46" arrival="1555.00" arrivalPos="52.46" duration="1.00" routeLength="1.00" timeLoss="0.28" maxSpeed="1.39"/>
        <ride waitingTime="30.00" vehicle="bus_22:0.1" depart="1585.00" arrival="2511.00" arrivalPos="98.68" duration="926.00" routeLength="3446.28" timeLoss="79.47"/>
    </personinfo>
    <personinfo id="410483103.22.1718" depart="1718.00" type="DEFAULT_PEDTYPE">
        <walk depart="1718.00" departPos="165.36" arrival="1719.00" arrivalPos="166.36" duration="1.00" routeLength="1.00" timeLoss="0.28" maxSpeed="1.39"/>
        <ride waitingTime="229.00" vehicle="bus_22:0.1" depart="1948.00" arrival="2511.00" arrivalPos="98.68" duration="563.00" routeLength="2088.49" timeLoss="48.63"/>
    </personinfo>
    <personinfo id="410482570.43.2325" depart="2325.00" type="DEFAULT_PEDTYPE">
        <walk depart="2325.00" departPos="91.56" arrival="2326.00" arrivalPos="92.56" duration="1.00" routeLength="1.00" timeLoss="0.28" maxSpeed="1.39"/>
        <ride waitingTime="278.00" vehicle="bus_22:0.1" depart="2604.00" arrival="2647.00" arrivalPos="258.30" duration="43.00" routeLength="155.77" timeLoss="5.02"/>
    </personinfo>
    <personinfo id="410475114.22.114" depart="114.00" type="DEFAULT_PEDTYPE">
        <walk depart="114.00" departPos="84.99" arrival="115.00" arrivalPos="85.99" duration="1.00" routeLength="1.00" timeLoss="0.28" maxSpeed="1.39"/>
        <ride waitingTime="1103.00" vehicle="bus_22:0.0" depart="1218.00" arrival="2734.00" arrivalPos="138.89" duration="1516.00" routeLength="5283.86" timeLoss="128.30"/>
    </personinfo>
    <personinfo id="410486991.43.2631" depart="2631.00" type="DEFAULT_PEDTYPE">
        <walk depart="2631.00" departPos="194.33" arrival="2632.00" arrivalPos="195.33" duration="1.00" routeLength="1.00" timeLoss="0.28" maxSpeed="1.39"/>
        <ride waitingTime="13.00" vehicle="bus_43:0.1" depart="2645.00" arrival="2769.00" arrivalPos="60.88" duration="124.00" routeLength="458.94" timeLoss="12.09"/>
    </personinfo>
    <personinfo id="410480716.22.2282" depart="2282.00" type="DEFAULT_PEDTYPE">
        <walk depart="2282.00" departPos="9.98" arrival="2283.00" arrivalPos="10.98" duration="1.00" routeLength="1.00" timeLoss="0.28" maxSpeed="1.39"/>
        <ride waitingTime="197.00" vehicle="bus_22:0.0" depart="2480.00" arrival="2855.00" arrivalPos="34.61" duration="375.00" routeLength="1371.85" timeLoss="37.44"/>
    </personinfo>
    <personinfo id="410480722.22.2373" depart="2373.00" type="DEFAULT_PEDTYPE">
        <walk depart="2373.00" departPos="184.20" arrival="2374.00" arrivalPos="185.20" duration="1.00" routeLength="1.00" timeLoss="0.28" maxSpeed="1.39"/>
        <ride waitingTime="202.00" vehicle="bus_22:0.0" depart="2576.00" arrival="2855.00" arrivalPos="34.61" duration="279.00" routeLength="1023.49" timeLoss="27.40"/>
    </personinfo>
    <personinfo id="410462101.22.556" depart="556.00" type="DEFAULT_PEDTYPE">
        <walk depart="556.00" departPos="11.46" arrival="557.00" arrivalPos="12.46" duration="1.00" routeLength="1.00" timeLoss="0.28" maxSpeed="1.39"/>
        <ride waitingTime="412.00" vehicle="bus_22:0.0" depart="969.00" arrival="2963.00" arrivalPos="39.38" duration="1994.00" routeLength="6873.38" timeLoss="173.64"/>
    </personinfo>
    <personinfo id="410462293.43.1671" depart="1671.00" type="DEFAULT_PEDTYPE">
        <walk depart="1671.00" departPos="10.48" arrival="1672.00" arrivalPos="11.48" duration="1.00" routeLength="1.00" timeLoss="0.28" maxSpeed="1.39"/>
        <ride waitingTime="365.00" vehicle="bus_43:0.1" depart="2037.00" arrival="2970.00" arrivalPos="29.61" duration="933.00" routeLength="2343.51" timeLoss="58.49"/>
    </personinfo>
    <personinfo id="410486991.43.2580" depart="2580.00" type="DEFAULT_PEDTYPE">
        <walk depart="2580.00" departPos="194.33" arrival="2581.00" arrivalPos="195.33" duration="1.00" routeLength="1.00" timeLoss="0.28" maxSpeed="1.39"/>
        <ride waitingTime="64.00" vehicle="bus_43:0.1" depart="2645.00" arrival="2970.00" arrivalPos="29.61" duration="325.00" routeLength="866.37" timeLoss="22.72"/>
    </personinfo>
    <personinfo id="410483103.22.68" depart="68.00" type="DEFAULT_PEDTYPE">
        <walk depart="68.00" departPos="165.36" arrival="69.00" arrivalPos="166.36" duration="1.00" routeLength="1.00" timeLoss="0.28" maxSpeed="1.39"/>
        <ride waitingTime="1322.00" vehicle="bus_22:0.0" depart="1391.00" arrival="3077.00" arrivalPos="32.70" duration="1686.00" routeLength="5870.98" timeLoss="146.12"/>
    </personinfo>
    <personinfo id="410464248.22.218" depart="218.00" type="DEFAULT_PEDTYPE">
        <walk depart="218.00" departPos="23.64" arrival="219.00" arrivalPos="24.64" duration="1.00" routeLength="1.00" timeLoss="0.28" maxSpeed="1.39"/>
        <ride waitingTime="2638.00" vehicle="bus_22:0.0" depart="2857.00" arrival="3078.00" arrivalPos="32.70" duration="221.00" routeLength="785.73" timeLoss="22.38"/>
    </personinfo>
    <personinfo id="410464248.22.1140" depart="1140.00" type="DEFAULT_PEDTYPE">
        <walk depart="1140.00" departPos="23.64" arrival="1141.00" arrivalPos="24.64" duration="1.00" routeLength="1.00" timeLoss="0.28" maxSpeed="1.39"/>
        <ride waitingTime="1716.00" vehicle="bus_22:0.0" depart="2857.00" arrival="3078.00" arrivalPos="32.70" duration="221.00" routeLength="785.73" timeLoss="22.38"/>
    </personinfo>
    <personinfo id="410465916.22.183" depart="183.00" type="DEFAULT_PEDTYPE">
        <walk depart="183.00" departPos="28.40" arrival="184.00" arrivalPos="29.40" duration="1.00" routeLength="1.00" timeLoss="0.28" maxSpeed="1.39"/>
        <ride waitingTime="2780.00" vehicle="bus_22:0.0" depart="2964.00" arrival="3079.00" arrivalPos="32.70" duration="115.00" routeLength="395.36" timeLoss="12.58"/>
    </personinfo>
    <personinfo id="410465916.22.2591" depart="2591.00" type="DEFAULT_PEDTYPE">
        <walk depart="2591.00" departPos="28.40" arrival="2592.00" arrivalPos="29.40" duration="1.00" routeLength="1.00" timeLoss="0.28" maxSpeed="1.39"/>
        <ride waitingTime="372.00" vehicle="bus_22:0.0" depart="2964.00" arrival="3079.00" arrivalPos="32.70" duration="115.00" routeLength="395.36" timeLoss="12.58"/>
    </personinfo>
    <personinfo id="410462211.43.2484" depart="2484.00" type="DEFAULT_PEDTYPE">
        <walk depart="2484.00" departPos="18.63" arrival="2485.00" arrivalPos="19.63" duration="1.00" routeLength="1.00" timeLoss="0.28" maxSpeed="1.39"/>
        <ride waitingTime="376.00" vehicle="bus_43:0.2" depart="2861.00" arrival="3145.00" arrivalPos="205.32" duration="284.00" routeLength="1051.89" timeLoss="25.45"/>
    </personinfo>
    <personinfo id="410459897.22.173" depart="173.00" type="DEFAULT_PEDTYPE">
        <walk depart="173.00" departPos="23.17" arrival="174.00" arrivalPos="24.17" duration="1.00" routeLength="1.00" timeLoss="0.28" maxSpeed="1.39"/>
        <ride waitingTime="113.00" vehicle="bus_22:0.0" depart="287.00" arrival="3214.00" arrivalPos="10.70" duration="2927.00" routeLength="10326.20" timeLoss="251.52"/>
    </personinfo>
    <personinfo id="410462103.22.699" depart="699.00" type="DEFAULT_PEDTYPE">
        <walk depart="699.00" departPos="51.46" arrival="700.00" arrivalPos="52.46" duration="1.00" routeLength="1.00" timeLoss="0.28" maxSpeed="1.39"/>
        <ride waitingTime="285.00" vehicle="bus_22:0.0" depart="985.00" arrival="3214.00" arrivalPos="10.70" duration="2229.00" routeLength="7707.75" timeLoss="194.15"/>
    </personinfo>
    <personinfo id="410465917.22.1652" depart="1652.00" type="DEFAULT_PEDTYPE">
        <walk depart="1652.00" departPos="21.70" arrival="1653.00" arrivalPos="22.70" duration="1.00" routeLength="1.00" timeLoss="0.28" maxSpeed="1.39"/>
        <ride waitingTime="1428.00" vehicle="bus_22:0.0" depart="3081.00" arrival="3215.00" arrivalPos="10.70" duration="134.00" routeLength="479.05" timeLoss="13.18"/>
    </personinfo>
    <personinfo id="410465917.22.2413" depart="2413.00" type="DEFAULT_PEDTYPE">
        <walk depart="2413.00" departPos="21.70" arrival="2414.00" arrivalPos="22.70" duration="1.00" routeLength="1.00" timeLoss="0.28" maxSpeed="1.39"/>
        <ride waitingTime="667.00" vehicle="bus_22:0.0" depart="3081.00" arrival="3215.00" arrivalPos="10.70" duration="134.00" routeLength="479.05" timeLoss="13.18"/>
    </personinfo>
    <personinfo id="410465917.22.2926" depart="2926.00" type="DEFAULT_PEDTYPE">
        <walk depart="2926.00" departPos="21.70" arrival="2927.00" arrivalPos="22.70" duration="1.00" routeLength="1.00" timeLoss="0.28" maxSpeed="1.39"/>
        <ride waitingTime="154.00" vehicle="bus_22:0.0" depart="3081.00" arrival="3216.00" arrivalPos="10.70" duration="135.00" routeLength="479.05" timeLoss="13.18"/>
    </personinfo>
    <personinfo id="2429952037.43.2077" depart="2077.00" type="DEFAULT_PEDTYPE">
        <walk depart="2077.00" departPos="506.84" arrival="2484.00" arrivalPos="0.00" duration="407.00" routeLength="506.84" timeLoss="42.08" maxSpeed="1.39"/>
        <ride waitingTime="297.00" vehicle="bus_43:0.3" depart="2781.00" arrival="3220.00" arrivalPos="61.17" duration="439.00" routeLength="1341.52" timeLoss="32.82"/>
    </personinfo>
    <personinfo id="410486955.43.1835" depart="1835.00" type="DEFAULT_PEDTYPE">
        <walk depart="1835.00" departPos="49.88" arrival="1836.00" arrivalPos="50.88" duration="1.00" routeLength="1.00" timeLoss="0.28" maxSpeed="1.39"/>
        <ride waitingTime="503.00" vehicle="bus_43:0.0" depart="2339.00" arrival="3260.00" arrivalPos="33.15" duration="921.00" routeLength="1850.32" timeLoss="54.75"/>
    </personinfo>
    <personinfo id="410464248.22.1585" depart="1585.00" type="DEFAULT_PEDTYPE">
        <walk depart="1585.00" departPos="23.64" arrival="1586.00" arrivalPos="24.64" duration="1.00" routeLength="1.00" timeLoss="0.28" maxSpeed="1.39"/>
        <ride waitingTime="1271.00" vehicle="bus_22:0.0" depart="2857.00" arrival="3340.00" arrivalPos="10.27" duration="483.00" routeLength="1722.54" timeLoss="45.91"/>
    </personinfo>
    <personinfo id="410465917.22.2581" depart="2581.00" type="DEFAULT_PEDTYPE">
        <walk depart="2581.00" departPos="21.70" arrival="2582.00" arrivalPos="22.70" duration="1.00" routeLength="1.00" timeLoss="0.28" maxSpeed="1.39"/>
        <ride waitingTime="499.00" vehicle="bus_22:0.0" depart="3081.00" arrival="3340.00" arrivalPos="10.27" duration="259.00" routeLength="936.81" timeLoss="23.53"/>
    </personinfo>
    <personinfo id="410465915.22.1701" depart="1701.00" type="DEFAULT_PEDTYPE">
        <walk depart="1701.00" departPos="138.08" arrival="1811.00" arrivalPos="0.00" duration="110.00" routeLength="138.08" timeLoss="10.58" maxSpeed="1.39"/>
        <ride waitingTime="1406.00" vehicle="bus_22:0.0" depart="3217.00" arrival="3341.00" arrivalPos="10.27" duration="124.00" routeLength="457.83" timeLoss="10.36"/>
    </personinfo>
    <personinfo id="410465915.22.2437" depart="2437.00" type="DEFAULT_PEDTYPE">
        <walk depart="2437.00" departPos="138.08" arrival="2549.00" arrivalPos="0.00" duration="112.00" routeLength="138.08" timeLoss="12.58" maxSpeed="1.39"/>
        <ride waitingTime="668.00" vehicle="bus_22:0.0" depart="3217.00" arrival="3341.00" arrivalPos="10.27" duration="124.00" routeLength="457.76" timeLoss="10.36"/>
    </personinfo>
    <personinfo id="410459897.22.1269" depart="1269.00" type="DEFAULT_PEDTYPE">
        <walk depart="1269.00" departPos="23.17" arrival="1270.00" arrivalPos="24.17" duration="1.00" routeLength="1.00" timeLoss="0.28" maxSpeed="1.39"/>
        <ride waitingTime="218.00" vehicle="bus_22:0.2" depart="1488.00" arrival="3341.00" arrivalPos="102.55" duration="1853.00" routeLength="6329.35" timeLoss="136.31"/>
    </personinfo>
    <personinfo id="410482520.43.2034" depart="2034.00" type="DEFAULT_PEDTYPE">
        <walk depart="2034.00" departPos="2.85" arrival="2035.00" arrivalPos="3.85" duration="1.00" routeLength="1.00" timeLoss="0.28" maxSpeed="1.39"/>
        <ride waitingTime="748.00" vehicle="bus_22:0.2" depart="2783.00" arrival="3342.00" arrivalPos="102.55" duration="559.00" routeLength="2108.22" timeLoss="43.81"/>
    </personinfo>
    <personinfo id="410460005.22.244" depart="244.00" type="DEFAULT_PEDTYPE">
        <walk depart="244.00" departPos="286.81" arrival="474.00" arrivalPos="0.00" duration="230.00" routeLength="286.81" timeLoss="23.50" maxSpeed="1.39"/>
        <ride waitingTime="128.00" vehicle="bus_22:0.1" depart="602.00" arrival="3355.00" arrivalPos="37.16" duration="2753.00" routeLength="9825.29" timeLoss="226.65"/>
    </personinfo>
    <personinfo id="1849631273.43.848" depart="848.00" type="DEFAULT_PEDTYPE">
        <walk depart="848.00" departPos="413.46" arrival="1179.00" arrivalPos="0.00" duration="331.00" routeLength="413.46" timeLoss="33.31" maxSpeed="1.39"/>
        <ride waitingTime="594.00" vehicle="bus_43:0.1" depart="1773.00" arrival="3393.00" arrivalPos="68.28" duration="1620.00" routeLength="3926.42" timeLoss="103.43"/>
    </personinfo>
    <personinfo id="410459897.22.3257" depart="3257.00" type="DEFAULT_PEDTYPE">
        <walk depart="3257.00" departPos="23.17" arrival="3258.00" arrivalPos="24.17" duration="1.00" routeLength="1.00" timeLoss="0.28" maxSpeed="1.39"/>
        <ride waitingTime="30.00" vehicle="bus_22:0.5" depart="3288.00" arrival="3435.00" arrivalPos="48.70" duration="147.00" routeLength="522.65" timeLoss="17.56"/>
    </personinfo>
    <personinfo id="410462293.43.590" depart="590.00" type="DEFAULT_PEDTYPE">
        <walk depart="590.00" departPos="10.48" arrival="591.00" arrivalPos="11.48" duration="1.00" routeLength="1.00" timeLoss="0.28" maxSpeed="1.39"/>
        <ride waitingTime="857.00" vehicle="bus_43:0.0" depart="1448.00" arrival="3449.00" arrivalPos="95.98" duration="2001.00" routeLength="4151.18" timeLoss="115.60"/>
    </personinfo>
    <personinfo id="410486991.43.1718" depart="1718.00" type="DEFAULT_PEDTYPE">
        <walk depart="1718.00" departPos="194.33" arrival="1719.00" arrivalPos="195.33" duration="1.00" routeLength="1.00" timeLoss="0.28" maxSpeed="1.39"/>
        <ride waitingTime="403.00" vehicle="bus_43:0.0" depart="2122.00" arrival="3449.00" arrivalPos="95.98" duration="1327.00" routeLength="2674.12" timeLoss="76.84"/>
    </personinfo>
    <personinfo id="1849631269.43.2299" depart="2299.00" type="DEFAULT_PEDTYPE">
        <walk depart="2299.00" departPos="160.44" arrival="2428.00" arrivalPos="0.00" duration="129.00" routeLength="160.44" timeLoss="13.48" maxSpeed="1.39"/>
        <ride waitingTime="280.00" vehicle="bus_43:0.3" depart="2708.00" arrival="3475.00" arrivalPos="10.16" duration="767.00" routeLength="2454.82" timeLoss="65.30"/>
    </personinfo>
    <personinfo id="410460005.22.1987" depart="1987.00" type="DEFAULT_PEDTYPE">
        <walk depart="1987.00" departPos="286.81" arrival="2217.00" arrivalPos="0.00" duration="230.00" routeLength="286.81" timeLoss="23.50" maxSpeed="1.39"/>
        <ride waitingTime="185.00" vehicle="bus_22:0.4" depart="2402.00" arrival="3475.00" arrivalPos="22.43" duration="1073.00" routeLength="3653.96" timeLoss="86.81"/>
    </personinfo>
    <personinfo id="410459904.22.2480" depart="2480.00" type="DEFAULT_PEDTYPE">
        <walk depart="2480.00" departPos="19.22" arrival="2481.00" arrivalPos="20.22" duration="1.00" routeLength="1.00" timeLoss="0.28" maxSpeed="1.39"/>
        <ride waitingTime="329.00" vehicle="bus_22:0.4" depart="2810.00" arrival="3475.00" arrivalPos="22.43" duration="665.00" routeLength="2486.87" timeLoss="57.46"/>
    </personinfo>
    <personinfo id="410462293.43.2249" depart="2249.00" type="DEFAULT_PEDTYPE">
        <walk depart="2249.00" departPos="10.48" arrival="2250.00" arrivalPos="11.48" duration="1.00" routeLength="1.00" timeLoss="0.28" maxSpeed="1.39"/>
        <ride waitingTime="401.00" vehicle="bus_43:0.2" depart="2651.00" arrival="3565.00" arrivalPos="11.09" duration="914.00" routeLength="2594.06" timeLoss="68.33"/>
    </personinfo>
    <personinfo id="410459904.22.1485" depart="1485.00" type="DEFAULT_PEDTYPE">
        <walk depart="1485.00" departPos="19.22" arrival="1486.00" arrivalPos="20.22" duration="1.00" routeLength="1.00" timeLoss="0.28" maxSpeed="1.39"/>
        <ride waitingTime="30.00" vehicle="bus_22:0.2" depart="1516.00" arrival="3566.00" arrivalPos="29.18" duration="2050.00" routeLength="7066.98" timeLoss="152.38"/>
    </personinfo>
    <personinfo id="410482520.22.2579" depart="2579.00" type="DEFAULT_PEDTYPE">
        <walk depart="2579.00" departPos="2.85" arrival="2580.00" arrivalPos="3.85" duration="1.00" routeLength="1.00" timeLoss="0.28" maxSpeed="1.39"/>
        <ride waitingTime="203.00" vehicle="bus_22:0.2" depart="2783.00" arrival="3566.00" arrivalPos="29.18" duration="783.00" routeLength="2937.42" timeLoss="64.57"/>
    </personinfo>
    <personinfo id="410459901.22.2058" depart="2058.00" type="DEFAULT_PEDTYPE">
        <walk depart="2058.00" departPos="553.15" arrival="2502.00" arrivalPos="0.00" duration="444.00" routeLength="553.15" timeLoss="45.73" maxSpeed="1.39"/>
        <ride waitingTime="33.00" vehicle="bus_22:0.4" depart="2535.00" arrival="3582.00" arrivalPos="62.45" duration="1047.00" routeLength="3196.35" timeLoss="80.44"/>
    </personinfo>
    <personinfo id="410465917.22.123" depart="123.00" type="DEFAULT_PEDTYPE">
        <walk depart="123.00" departPos="21.70" arrival="124.00" arrivalPos="22.70" duration="1.00" routeLength="1.00" timeLoss="0.28" maxSpeed="1.39"/>
        <ride waitingTime="2957.00" vehicle="bus_22:0.0" depart="3081.00" arrival="3627.00" arrivalPos="80.48" duration="546.00" routeLength="1660.87" timeLoss="41.94"/>
    </personinfo>
    <personinfo id="410465917.22.855" depart="855.00" type="DEFAULT_PEDTYPE">
        <walk depart="855.00" departPos="21.70" arrival="856.00" arrivalPos="22.70" duration="1.00" routeLength="1.00" timeLoss="0.28" maxSpeed="1.39"/>
        <ride waitingTime="2225.00" vehicle="bus_22:0.0" depart="3081.00" arrival="3628.00" arrivalPos="80.48" duration="547.00" routeLength="1660.87" timeLoss="41.94"/>
    </personinfo>
    <personinfo id="410465917.22.2188" depart="2188.00" type="DEFAULT_PEDTYPE">
        <walk depart="2188.00" departPos="21.70" arrival="2189.00" arrivalPos="22.70" duration="1.00" routeLength="1.00" timeLoss="0.28" maxSpeed="1.39"/>
        <ride waitingTime="892.00" vehicle="bus_22:0.0" depart="3081.00" arrival="3628.00" arrivalPos="80.48" duration="547.00" routeLength="1660.87" timeLoss="41.94"/>
    </personinfo>
    <personinfo id="410465917.22.2795" depart="2795.00" type="DEFAULT_PEDTYPE">
        <walk depart="2795.00" departPos="21.70" arrival="2796.00" arrivalPos="22.70" duration="1.00" routeLength="1.00" timeLoss="0.28" maxSpeed="1.39"/>
        <ride waitingTime="285.00" vehicle="bus_22:0.0" depart="3081.00" arrival="3629.00" arrivalPos="80.48" duration="548.00" routeLength="1660.87" timeLoss="41.94"/>
    </personinfo>
    <personinfo id="410465915.22.1060" depart="1060.00" type="DEFAULT_PEDTYPE">
        <walk depart="1060.00" departPos="138.08" arrival="1170.00" arrivalPos="0.00" duration="110.00" routeLength="138.08" timeLoss="10.58" maxSpeed="1.39"/>
        <ride waitingTime="2047.00" vehicle="bus_22:0.0" depart="3217.00" arrival="3629.00" arrivalPos="80.48" duration="412.00" routeLength="1181.88" timeLoss="28.77"/>
    </personinfo>
    <personinfo id="410465915.22.3073" depart="3073.00" type="DEFAULT_PEDTYPE">
        <walk depart="3073.00" departPos="138.08" arrival="3185.00" arrivalPos="0.00" duration="112.00" routeLength="138.08" timeLoss="12.58" maxSpeed="1.39"/>
        <ride waitingTime="32.00" vehicle="bus_22:0.0" depart="3217.00" arrival="3630.00" arrivalPos="80.48" duration="413.00" routeLength="1181.82" timeLoss="28.77"/>
    </personinfo>
    <personinfo id="410482570.22.2132" depart="2132.00" type="DEFAULT_PEDTYPE">
        <walk depart="2132.00" departPos="91.56" arrival="2133.00" arrivalPos="92.56" duration="1.00" routeLength="1.00" timeLoss="0.28" maxSpeed="1.39"/>
        <ride waitingTime="471.00" vehicle="bus_22:0.1" depart="2604.00" arrival="3635.00" arrivalPos="39.36" duration="1031.00" routeLength="3122.49" timeLoss="77.46"/>
    </personinfo>
    <personinfo id="410482568.22.3124" depart="3124.00" type="DEFAULT_PEDTYPE">
        <walk depart="3124.00" departPos="3.17" arrival="3125.00" arrivalPos="4.17" duration="1.00" routeLength="1.00" timeLoss="0.28" maxSpeed="1.39"/>
        <ride waitingTime="478.00" vehicle="bus_22:0.3" depart="3603.00" arrival="3721.00" arrivalPos="83.10" duration="118.00" routeLength="439.51" timeLoss="10.82"/>
    </personinfo>
    <personinfo id="410462211.43.1900" depart="1900.00" type="DEFAULT_PEDTYPE">
        <walk depart="1900.00" departPos="18.63" arrival="1901.00" arrivalPos="19.63" duration="1.00" routeLength="1.00" timeLoss="0.28" maxSpeed="1.39"/>
        <ride waitingTime="278.00" vehicle="bus_43:0.1" depart="2179.00" arrival="3727.00" arrivalPos="95.98" duration="1548.00" routeLength="3726.05" timeLoss="94.29"/>
    </personinfo>
    <personinfo id="1531005322.43.955" depart="955.00" type="DEFAULT_PEDTYPE">
        <walk depart="955.00" departPos="12.13" arrival="956.00" arrivalPos="13.13" duration="1.00" routeLength="1.00" timeLoss="0.28" maxSpeed="1.39"/>
        <ride waitingTime="2293.00" vehicle="bus_22:0.3" depart="3249.00" arrival="3745.00" arrivalPos="159.77" duration="496.00" routeLength="1832.97" timeLoss="45.99"/>
    </personinfo>
    <personinfo id="410471030.22.2781" depart="2781.00" type="DEFAULT_PEDTYPE">
        <walk depart="2781.00" departPos="18.18" arrival="2782.00" arrivalPos="19.18" duration="1.00" routeLength="1.00" timeLoss="0.28" maxSpeed="1.39"/>
        <ride waitingTime="138.00" vehicle="bus_22:0.1" depart="2920.00" arrival="3869.00" arrivalPos="10.72" duration="949.00" routeLength="3167.74" timeLoss="75.42"/>
    </personinfo>
    <personinfo id="410480721.22.2983" depart="2983.00" type="DEFAULT_PEDTYPE">
        <walk depart="2983.00" departPos="312.24" arrival="2984.00" arrivalPos="313.24" duration="1.00" routeLength="1.00" timeLoss="0.28" maxSpeed="1.39"/>
        <ride waitingTime="213.00" vehicle="bus_22:0.1" depart="3197.00" arrival="3869.00" arrivalPos="10.72" duration="672.00" routeLength="2160.22" timeLoss="53.15"/>
    </personinfo>
    <personinfo id="410465916.22.265" depart="265.00" type="DEFAULT_PEDTYPE">
        <walk depart="265.00" departPos="28.40" arrival="266.00" arrivalPos="29.40" duration="1.00" routeLength="1.00" timeLoss="0.28" maxSpeed="1.39"/>
        <ride waitingTime="2698.00" vehicle="bus_22:0.0" depart="2964.00" arrival="3903.00" arrivalPos="267.81" duration="939.00" routeLength="2730.95" timeLoss="71.96"/>
    </personinfo>
    <personinfo id="410465917.22.1964" depart="1964.00" type="DEFAULT_PEDTYPE">
        <walk depart="1964.00" departPos="21.70" arrival="1965.00" arrivalPos="22.70" duration="1.00" routeLength="1.00" timeLoss="0.28" maxSpeed="1.39"/>
        <ride waitingTime="1116.00" vehicle="bus_22:0.0" depart="3081.00" arrival="3903.00" arrivalPos="267.81" duration="822.00" routeLength="2335.59" timeLoss="59.38"/>
    </personinfo>
    <personinfo id="410465917.22.2750" depart="2750.00" type="DEFAULT_PEDTYPE">
        <walk depart="2750.00" departPos="21.70" arrival="2751.00" arrivalPos="22.70" duration="1.00" routeLength="1.00" timeLoss="0.28" maxSpeed="1.39"/>
        <ride waitingTime="330.00" vehicle="bus_22:0.0" depart="3081.00" arrival="3903.00" arrivalPos="267.81" duration="822.00" routeLength="2335.59" timeLoss="59.38"/>
    </personinfo>
    <personinfo id="410465915.22.301" depart="301.00" type="DEFAULT_PEDTYPE">
        <walk depart="301.00" departPos="138.08" arrival="413.00" arrivalPos="0.00" duration="112.00" routeLength="138.08" timeLoss="12.58" maxSpeed="1.39"/>
        <ride waitingTime="2804.00" vehicle="bus_22:0.0" depart="3217.00" arrival="3904.00" arrivalPos="267.81" duration="687.00" routeLength="1856.61" timeLoss="46.21"/>
    </personinfo>
    <personinfo id="410465915.22.2567" depart="2567.00" type="DEFAULT_PEDTYPE">
        <walk depart="2567.00" departPos="138.08" arrival="2678.00" arrivalPos="0.00" duration="111.00" routeLength="138.08" timeLoss="11.58" maxSpeed="1.39"/>
        <ride waitingTime="539.00" vehicle="bus_22:0.0" depart="3217.00" arrival="3904.00" arrivalPos="267.81" duration="687.00" routeLength="1856.55" timeLoss="46.21"/>
    </personinfo>