<?xml version="1.0" encoding="UTF-8"?>

<!-- generated on 2024-06-09 00:44:53 by Eclipse SUMO GUI Version 1.14.1
<configuration xmlns:xsi="http://www.w3.org/2001/XMLSchema-instance" xsi:noNamespaceSchemaLocation="http://sumo.dlr.de/xsd/sumoConfiguration.xsd">

    <input>
        <net-file value="wang2020/sumo/ring.net.xml"/>
        <additional-files value="wang2020/sumo/ring.add.xml,wang2020/sumo/persons.add.xml"/>
    </input>

    <output>
        <tripinfo-output value="tripinfo.xml"/>
    </output>

    <processing>
        <no-internal-links value="false"/>
        <lanechange.overtake-right value="true"/>
    </processing>

    <report>
        <no-warnings value="true"/>
    </report>

    <traci_server>
        <remote-port value="63837"/>
    </traci_server>

</configuration>
-->

<tripinfos xmlns:xsi="http://www.w3.org/2001/XMLSchema-instance" xsi:noNamespaceSchemaLocation="http://sumo.dlr.de/xsd/tripinfo_file.xsd">
    <personinfo id="p21" depart="0.00" type="DEFAULT_PEDTYPE">
        <walk depart="0.00" departPos="221.00" arrival="5.00" arrivalPos="226.67" duration="5.00" routeLength="5.67" timeLoss="0.99" maxSpeed="1.41"/>
        <ride waitingTime="19.00" vehicle="bus.5" depart="24.00" arrival="60.00" arrivalPos="231.67" duration="36.00" routeLength="443.33" timeLoss="4.41"/>
        <walk depart="60.00" departPos="231.67" arrival="75.00" arrivalPos="250.00" duration="15.00" routeLength="18.33" timeLoss="1.80" maxSpeed="1.39"/>
    </personinfo>
    <personinfo id="p45" depart="0.00" type="DEFAULT_PEDTYPE">
        <walk depart="0.00" departPos="221.00" arrival="9.00" arrivalPos="226.67" duration="9.00" routeLength="5.67" timeLoss="5.09" maxSpeed="1.45"/>
        <ride waitingTime="15.00" vehicle="bus.4" depart="24.00" arrival="60.00" arrivalPos="231.67" duration="36.00" routeLength="443.34" timeLoss="4.41"/>
        <walk depart="60.00" departPos="231.67" arrival="75.00" arrivalPos="250.00" duration="15.00" routeLength="18.33" timeLoss="1.80" maxSpeed="1.39"/>
    </personinfo>
    <personinfo id="p64" depart="0.00" type="DEFAULT_PEDTYPE">
        <walk depart="0.00" departPos="221.00" arrival="10.00" arrivalPos="226.67" duration="10.00" routeLength="5.67" timeLoss="5.86" maxSpeed="1.37"/>
        <ride waitingTime="14.00" vehicle="bus.3" depart="24.00" arrival="60.00" arrivalPos="231.67" duration="36.00" routeLength="443.33" timeLoss="4.41"/>
        <walk depart="60.00" departPos="231.67" arrival="75.00" arrivalPos="250.00" duration="15.00" routeLength="18.33" timeLoss="1.80" maxSpeed="1.39"/>
    </personinfo>
    <personinfo id="p68" depart="0.00" type="DEFAULT_PEDTYPE">
        <walk depart="0.00" departPos="221.00" arrival="8.00" arrivalPos="226.67" duration="8.00" routeLength="5.67" timeLoss="3.54" maxSpeed="1.27"/>
        <ride waitingTime="16.00" vehicle="bus.3" depart="24.00" arrival="60.00" arrivalPos="231.67" duration="36.00" routeLength="443.33" timeLoss="4.41"/>
        <walk depart="60.00" departPos="231.67" arrival="76.00" arrivalPos="250.00" duration="16.00" routeLength="18.33" timeLoss="2.80" maxSpeed="1.39"/>
    </personinfo>
    <personinfo id="p13" depart="0.00" type="DEFAULT_PEDTYPE">
        <walk depart="0.00" departPos="221.00" arrival="6.00" arrivalPos="226.67" duration="6.00" routeLength="5.67" timeLoss="2.10" maxSpeed="1.45"/>
        <ride waitingTime="45.00" vehicle="bus.0" depart="51.00" arrival="82.00" arrivalPos="231.67" duration="31.00" routeLength="443.34" timeLoss="4.41"/>
        <walk depart="82.00" departPos="231.67" arrival="97.00" arrivalPos="250.00" duration="15.00" routeLength="18.33" timeLoss="1.80" maxSpeed="1.39"/>
    </personinfo>
    <personinfo id="p20" depart="0.00" type="DEFAULT_PEDTYPE">
        <walk depart="0.00" departPos="221.00" arrival="8.00" arrivalPos="226.67" duration="8.00" routeLength="5.67" timeLoss="4.48" maxSpeed="1.61"/>
        <ride waitingTime="43.00" vehicle="bus.0" depart="51.00" arrival="82.00" arrivalPos="231.67" duration="31.00" routeLength="443.34" timeLoss="4.41"/>
        <walk depart="82.00" departPos="231.67" arrival="98.00" arrivalPos="250.00" duration="16.00" routeLength="18.33" timeLoss="2.80" maxSpeed="1.39"/>
    </personinfo>
    <personinfo id="p47" depart="0.00" type="DEFAULT_PEDTYPE">
        <walk depart="0.00" departPos="221.00" arrival="7.00" arrivalPos="226.67" duration="7.00" routeLength="5.67" timeLoss="2.91" maxSpeed="1.39"/>
        <ride waitingTime="17.00" vehicle="bus.4" depart="24.00" arrival="92.00" arrivalPos="231.67" duration="68.00" routeLength="886.67" timeLoss="8.81"/>
        <walk depart="92.00" departPos="231.67" arrival="106.00" arrivalPos="250.00" duration="14.00" routeLength="18.33" timeLoss="0.80" maxSpeed="1.39"/>
    </personinfo>
    <personinfo id="p24" depart="0.00" type="DEFAULT_PEDTYPE">
        <walk depart="0.00" departPos="221.00" arrival="8.00" arrivalPos="226.67" duration="8.00" routeLength="5.67" timeLoss="3.41" maxSpeed="1.24"/>
        <ride waitingTime="16.00" vehicle="bus.5" depart="24.00" arrival="92.00" arrivalPos="231.67" duration="68.00" routeLength="886.66" timeLoss="8.81"/>
        <walk depart="92.00" departPos="231.67" arrival="107.00" arrivalPos="250.00" duration="15.00" routeLength="18.33" timeLoss="1.80" maxSpeed="1.39"/>
    </personinfo>
    <personinfo id="p49" depart="0.00" type="DEFAULT_PEDTYPE">
        <walk depart="0.00" departPos="221.00" arrival="8.00" arrivalPos="226.67" duration="8.00" routeLength="5.67" timeLoss="3.35" maxSpeed="1.22"/>
        <ride waitingTime="16.00" vehicle="bus.4" depart="24.00" arrival="92.00" arrivalPos="231.67" duration="68.00" routeLength="886.67" timeLoss="8.81"/>
        <walk depart="92.00" departPos="231.67" arrival="107.00" arrivalPos="250.00" duration="15.00" routeLength="18.33" timeLoss="1.80" maxSpeed="1.39"/>
    </personinfo>
    <personinfo id="p27" depart="0.00" type="DEFAULT_PEDTYPE">
        <walk depart="0.00" departPos="221.00" arrival="8.00" arrivalPos="226.67" duration="8.00" routeLength="5.67" timeLoss="3.55" maxSpeed="1.27"/>
        <ride waitingTime="16.00" vehicle="bus.5" depart="24.00" arrival="92.00" arrivalPos="231.67" duration="68.00" routeLength="886.66" timeLoss="8.81"/>
        <walk depart="92.00" departPos="231.67" arrival="108.00" arrivalPos="250.00" duration="16.00" routeLength="18.33" timeLoss="2.80" maxSpeed="1.39"/>
    </personinfo>
    <personinfo id="p28" depart="0.00" type="DEFAULT_PEDTYPE">
        <walk depart="0.00" departPos="221.00" arrival="9.00" arrivalPos="226.67" duration="9.00" routeLength="5.67" timeLoss="4.70" maxSpeed="1.32"/>
        <ride waitingTime="15.00" vehicle="bus.5" depart="24.00" arrival="92.00" arrivalPos="231.67" duration="68.00" routeLength="886.66" timeLoss="8.81"/>
        <walk depart="92.00" departPos="231.67" arrival="108.00" arrivalPos="250.00" duration="16.00" routeLength="18.33" timeLoss="2.80" maxSpeed="1.39"/>
    </personinfo>
    <personinfo id="p36" depart="0.00" type="DEFAULT_PEDTYPE">
        <walk depart="0.00" departPos="221.00" arrival="8.00" arrivalPos="226.67" duration="8.00" routeLength="5.67" timeLoss="4.00" maxSpeed="1.42"/>
        <ride waitingTime="53.00" vehicle="bus.5" depart="61.00" arrival="93.00" arrivalPos="231.67" duration="32.00" routeLength="443.33" timeLoss="4.41"/>
        <walk depart="93.00" departPos="231.67" arrival="108.00" arrivalPos="250.00" duration="15.00" routeLength="18.33" timeLoss="1.80" maxSpeed="1.39"/>
    </personinfo>
    <personinfo id="p52" depart="0.00" type="DEFAULT_PEDTYPE">
        <walk depart="0.00" departPos="221.00" arrival="7.00" arrivalPos="226.67" duration="7.00" routeLength="5.67" timeLoss="3.51" maxSpeed="1.62"/>
        <ride waitingTime="54.00" vehicle="bus.4" depart="61.00" arrival="93.00" arrivalPos="231.67" duration="32.00" routeLength="443.33" timeLoss="4.41"/>
        <walk depart="93.00" departPos="231.67" arrival="108.00" arrivalPos="250.00" duration="15.00" routeLength="18.33" timeLoss="1.80" maxSpeed="1.39"/>
    </personinfo>
    <personinfo id="p66" depart="0.00" type="DEFAULT_PEDTYPE">
        <walk depart="0.00" departPos="221.00" arrival="10.00" arrivalPos="226.67" duration="10.00" routeLength="5.67" timeLoss="5.37" maxSpeed="1.23"/>
        <ride waitingTime="14.00" vehicle="bus.3" depart="24.00" arrival="93.00" arrivalPos="231.67" duration="69.00" routeLength="886.67" timeLoss="8.81"/>
        <walk depart="93.00" departPos="231.67" arrival="108.00" arrivalPos="250.00" duration="15.00" routeLength="18.33" timeLoss="1.80" maxSpeed="1.39"/>
    </personinfo>
    <personinfo id="p37" depart="0.00" type="DEFAULT_PEDTYPE">
        <walk depart="0.00" departPos="221.00" arrival="8.00" arrivalPos="226.67" duration="8.00" routeLength="5.67" timeLoss="3.81" maxSpeed="1.35"/>
        <ride waitingTime="53.00" vehicle="bus.5" depart="61.00" arrival="93.00" arrivalPos="231.67" duration="32.00" routeLength="443.33" timeLoss="4.41"/>
        <walk depart="93.00" departPos="231.67" arrival="109.00" arrivalPos="250.00" duration="16.00" routeLength="18.33" timeLoss="2.80" maxSpeed="1.39"/>
    </personinfo>
    <personinfo id="p54" depart="0.00" type="DEFAULT_PEDTYPE">
        <walk depart="0.00" departPos="221.00" arrival="6.00" arrivalPos="226.67" duration="6.00" routeLength="5.67" timeLoss="2.28" maxSpeed="1.52"/>
        <ride waitingTime="55.00" vehicle="bus.4" depart="61.00" arrival="93.00" arrivalPos="231.67" duration="32.00" routeLength="443.33" timeLoss="4.41"/>
        <walk depart="93.00" departPos="231.67" arrival="109.00" arrivalPos="250.00" duration="16.00" routeLength="18.33" timeLoss="2.80" maxSpeed="1.39"/>
    </personinfo>
    <personinfo id="p56" depart="0.00" type="DEFAULT_PEDTYPE">
        <walk depart="0.00" departPos="221.00" arrival="9.00" arrivalPos="226.67" duration="9.00" routeLength="5.67" timeLoss="4.90" maxSpeed="1.38"/>
        <ride waitingTime="52.00" vehicle="bus.4" depart="61.00" arrival="94.00" arrivalPos="231.67" duration="33.00" routeLength="443.33" timeLoss="4.41"/>
        <walk depart="94.00" departPos="231.67" arrival="109.00" arrivalPos="250.00" duration="15.00" routeLength="18.33" timeLoss="1.80" maxSpeed="1.39"/>
    </personinfo>
    <personinfo id="p70" depart="0.00" type="DEFAULT_PEDTYPE">
        <walk depart="0.00" departPos="221.00" arrival="9.00" arrivalPos="226.67" duration="9.00" routeLength="5.67" timeLoss="5.01" maxSpeed="1.42"/>
        <ride waitingTime="15.00" vehicle="bus.3" depart="24.00" arrival="93.00" arrivalPos="231.67" duration="69.00" routeLength="886.67" timeLoss="8.81"/>
        <walk depart="93.00" departPos="231.67" arrival="109.00" arrivalPos="250.00" duration="16.00" routeLength="18.33" timeLoss="2.80" maxSpeed="1.39"/>
    </personinfo>
    <personinfo id="pStop8.0" depart="9.91" type="DEFAULT_PEDTYPE">
        <walk depart="10.00" departPos="200.00" arrival="32.00" arrivalPos="226.67" duration="22.00" routeLength="26.67" timeLoss="2.53" maxSpeed="1.37"/>
        <ride waitingTime="30.00" vehicle="bus.3" depart="62.00" arrival="94.00" arrivalPos="231.67" duration="32.00" routeLength="443.34" timeLoss="4.41"/>
        <walk depart="94.00" departPos="231.67" arrival="109.00" arrivalPos="250.00" duration="15.00" routeLength="18.33" timeLoss="1.80" maxSpeed="1.39"/>
    </personinfo>
    <personinfo id="p78" depart="0.00" type="DEFAULT_PEDTYPE">
        <walk depart="0.00" departPos="221.00" arrival="8.00" arrivalPos="226.67" duration="8.00" routeLength="5.67" timeLoss="3.84" maxSpeed="1.36"/>
        <ride waitingTime="54.00" vehicle="bus.3" depart="62.00" arrival="93.00" arrivalPos="231.67" duration="31.00" routeLength="443.34" timeLoss="4.41"/>
        <walk depart="93.00" departPos="231.67" arrival="109.00" arrivalPos="250.00" duration="16.00" routeLength="18.33" timeLoss="2.80" maxSpeed="1.39"/>
    </personinfo>
    <personinfo id="p59" depart="0.00" type="DEFAULT_PEDTYPE">
        <walk depart="0.00" departPos="221.00" arrival="12.00" arrivalPos="226.67" duration="12.00" routeLength="5.67" timeLoss="8.01" maxSpeed="1.42"/>
        <ride waitingTime="49.00" vehicle="bus.4" depart="61.00" arrival="94.00" arrivalPos="231.67" duration="33.00" routeLength="443.33" timeLoss="4.41"/>
        <walk depart="94.00" departPos="231.67" arrival="110.00" arrivalPos="250.00" duration="16.00" routeLength="18.33" timeLoss="2.80" maxSpeed="1.39"/>
    </personinfo>
    <personinfo id="p16" depart="0.00" type="DEFAULT_PEDTYPE">
        <walk depart="0.00" departPos="221.00" arrival="8.00" arrivalPos="226.67" duration="8.00" routeLength="5.67" timeLoss="3.60" maxSpeed="1.29"/>
        <ride waitingTime="43.00" vehicle="bus.0" depart="51.00" arrival="117.00" arrivalPos="231.67" duration="66.00" routeLength="886.67" timeLoss="8.81"/>
        <walk depart="117.00" departPos="231.67" arrival="132.00" arrivalPos="250.00" duration="15.00" routeLength="18.33" timeLoss="1.80" maxSpeed="1.39"/>
    </personinfo>
    <personinfo id="p103" depart="0.00" type="DEFAULT_PEDTYPE">
        <walk depart="0.00" departPos="221.00" arrival="7.00" arrivalPos="226.67" duration="7.00" routeLength="5.67" timeLoss="2.78" maxSpeed="1.34"/>
        <ride waitingTime="17.00" vehicle="bus.1" depart="24.00" arrival="118.00" arrivalPos="231.67" duration="94.00" routeLength="1330.00" timeLoss="9.22"/>
        <walk depart="118.00" departPos="231.67" arrival="133.00" arrivalPos="250.00" duration="15.00" routeLength="18.33" timeLoss="1.80" maxSpeed="1.39"/>
    </personinfo>
    <personinfo id="p19" depart="0.00" type="DEFAULT_PEDTYPE">
        <walk depart="0.00" departPos="221.00" arrival="10.00" arrivalPos="226.67" duration="10.00" routeLength="5.67" timeLoss="5.64" maxSpeed="1.30"/>
        <ride waitingTime="41.00" vehicle="bus.0" depart="51.00" arrival="117.00" arrivalPos="231.67" duration="66.00" routeLength="886.67" timeLoss="8.81"/>
        <walk depart="117.00" departPos="231.67" arrival="133.00" arrivalPos="250.00" duration="16.00" routeLength="18.33" timeLoss="2.80" maxSpeed="1.39"/>
    </personinfo>
    <personinfo id="pStop2.0" depart="1.58" type="DEFAULT_PEDTYPE">
        <walk depart="2.00" departPos="200.00" arrival="21.00" arrivalPos="226.67" duration="19.00" routeLength="26.67" timeLoss="2.40" maxSpeed="1.61"/>
        <ride waitingTime="30.00" vehicle="bus.0" depart="51.00" arrival="117.00" arrivalPos="231.67" duration="66.00" routeLength="886.67" timeLoss="8.81"/>
        <walk depart="117.00" departPos="231.67" arrival="133.00" arrivalPos="250.00" duration="16.00" routeLength="18.33" timeLoss="2.80" maxSpeed="1.39"/>
    </personinfo>
    <personinfo id="p110" depart="0.00" type="DEFAULT_PEDTYPE">
        <walk depart="0.00" departPos="221.00" arrival="8.00" arrivalPos="226.67" duration="8.00" routeLength="5.67" timeLoss="3.75" maxSpeed="1.33"/>
        <ride waitingTime="16.00" vehicle="bus.1" depart="24.00" arrival="118.00" arrivalPos="231.67" duration="94.00" routeLength="1330.00" timeLoss="9.22"/>
        <walk depart="118.00" departPos="231.67" arrival="134.00" arrivalPos="250.00" duration="16.00" routeLength="18.33" timeLoss="2.80" maxSpeed="1.39"/>
    </personinfo>
    <personinfo id="pStop2.1" depart="21.28" type="DEFAULT_PEDTYPE">
        <walk depart="22.00" departPos="200.00" arrival="43.00" arrivalPos="226.67" duration="21.00" routeLength="26.67" timeLoss="2.23" maxSpeed="1.42"/>
        <ride waitingTime="8.00" vehicle="bus.0" depart="51.00" arrival="118.00" arrivalPos="231.67" duration="67.00" routeLength="886.67" timeLoss="8.81"/>
        <walk depart="118.00" departPos="231.67" arrival="134.00" arrivalPos="250.00" duration="16.00" routeLength="18.33" timeLoss="2.80" maxSpeed="1.39"/>
    </personinfo>
    <personinfo id="p1" depart="0.00" type="DEFAULT_PEDTYPE">
        <walk depart="0.00" departPos="221.00" arrival="5.00" arrivalPos="226.67" duration="5.00" routeLength="5.67" timeLoss="1.15" maxSpeed="1.47"/>
        <ride waitingTime="82.00" vehicle="bus.1" depart="87.00" arrival="119.00" arrivalPos="231.67" duration="32.00" routeLength="443.33" timeLoss="4.41"/>
        <walk depart="119.00" departPos="231.67" arrival="135.00" arrivalPos="250.00" duration="16.00" routeLength="18.33" timeLoss="2.80" maxSpeed="1.39"/>
    </personinfo>
    <personinfo id="p7" depart="0.00" type="DEFAULT_PEDTYPE">
        <walk depart="0.00" departPos="221.00" arrival="8.00" arrivalPos="226.67" duration="8.00" routeLength="5.67" timeLoss="4.10" maxSpeed="1.45"/>
        <ride waitingTime="79.00" vehicle="bus.1" depart="87.00" arrival="119.00" arrivalPos="231.67" duration="32.00" routeLength="443.33" timeLoss="4.41"/>
        <walk depart="119.00" departPos="231.67" arrival="135.00" arrivalPos="250.00" duration="16.00" routeLength="18.33" timeLoss="2.80" maxSpeed="1.39"/>
    </personinfo>
    <personinfo id="p43" depart="0.00" type="DEFAULT_PEDTYPE">
        <walk depart="0.00" departPos="221.00" arrival="6.00" arrivalPos="226.67" duration="6.00" routeLength="5.67" timeLoss="2.26" maxSpeed="1.52"/>
        <ride waitingTime="18.00" vehicle="bus.4" depart="24.00" arrival="127.00" arrivalPos="231.67" duration="103.00" routeLength="1330.00" timeLoss="13.22"/>
        <walk depart="127.00" departPos="231.67" arrival="142.00" arrivalPos="250.00" duration="15.00" routeLength="18.33" timeLoss="1.80" maxSpeed="1.39"/>
    </personinfo>
    <personinfo id="pStop6.0" depart="26.05" type="DEFAULT_PEDTYPE">
        <walk depart="27.00" departPos="200.00" arrival="50.00" arrivalPos="226.67" duration="23.00" routeLength="26.67" timeLoss="3.13" maxSpeed="1.34"/>
        <ride waitingTime="11.00" vehicle="bus.4" depart="61.00" arrival="128.00" arrivalPos="231.67" duration="67.00" routeLength="886.66" timeLoss="8.81"/>
        <walk depart="128.00" departPos="231.67" arrival="143.00" arrivalPos="250.00" duration="15.00" routeLength="18.33" timeLoss="1.80" maxSpeed="1.39"/>
    </personinfo>
    <personinfo id="p101" depart="0.00" type="DEFAULT_PEDTYPE">
        <walk depart="0.00" departPos="221.00" arrival="5.00" arrivalPos="226.67" duration="5.00" routeLength="5.67" timeLoss="1.17" maxSpeed="1.48"/>
        <ride waitingTime="19.00" vehicle="bus.1" depart="24.00" arrival="152.00" arrivalPos="231.67" duration="128.00" routeLength="1773.34" timeLoss="13.62"/>
        <walk depart="152.00" departPos="231.67" arrival="167.00" arrivalPos="250.00" duration="15.00" routeLength="18.33" timeLoss="1.80" maxSpeed="1.39"/>
    </personinfo>
    <personinfo id="p104" depart="0.00" type="DEFAULT_PEDTYPE">
        <walk depart="0.00" departPos="221.00" arrival="8.00" arrivalPos="226.67" duration="8.00" routeLength="5.67" timeLoss="3.71" maxSpeed="1.32"/>
        <ride waitingTime="16.00" vehicle="bus.1" depart="24.00" arrival="153.00" arrivalPos="231.67" duration="129.00" routeLength="1773.34" timeLoss="13.62"/>
        <walk depart="153.00" departPos="231.67" arrival="168.00" arrivalPos="250.00" duration="15.00" routeLength="18.33" timeLoss="1.80" maxSpeed="1.39"/>
    </personinfo>
    <personinfo id="p109" depart="0.00" type="DEFAULT_PEDTYPE">
        <walk depart="0.00" departPos="221.00" arrival="8.00" arrivalPos="226.67" duration="8.00" routeLength="5.67" timeLoss="4.17" maxSpeed="1.48"/>
        <ride waitingTime="16.00" vehicle="bus.1" depart="24.00" arrival="153.00" arrivalPos="231.67" duration="129.00" routeLength="1773.34" timeLoss="13.62"/>
        <walk depart="153.00" departPos="231.67" arrival="168.00" arrivalPos="250.00" duration="15.00" routeLength="18.33" timeLoss="1.80" maxSpeed="1.39"/>
    </personinfo>
    <personinfo id="p18" depart="0.00" type="DEFAULT_PEDTYPE">
        <walk depart="0.00" departPos="221.00" arrival="9.00" arrivalPos="226.67" duration="9.00" routeLength="5.67" timeLoss="4.66" maxSpeed="1.31"/>
        <ride waitingTime="42.00" vehicle="bus.0" depart="51.00" arrival="153.00" arrivalPos="231.67" duration="102.00" routeLength="1330.00" timeLoss="13.22"/>
        <walk depart="153.00" departPos="231.67" arrival="168.00" arrivalPos="250.00" duration="15.00" routeLength="18.33" timeLoss="1.80" maxSpeed="1.39"/>
    </personinfo>
    <personinfo id="p4" depart="0.00" type="DEFAULT_PEDTYPE">
        <walk depart="0.00" departPos="221.00" arrival="7.00" arrivalPos="226.67" duration="7.00" routeLength="5.67" timeLoss="3.23" maxSpeed="1.50"/>
        <ride waitingTime="80.00" vehicle="bus.1" depart="87.00" arrival="154.00" arrivalPos="231.67" duration="67.00" routeLength="886.67" timeLoss="8.81"/>
        <walk depart="154.00" departPos="231.67" arrival="169.00" arrivalPos="250.00" duration="15.00" routeLength="18.33" timeLoss="1.80" maxSpeed="1.39"/>
    </personinfo>
    <personinfo id="p62" depart="0.00" type="DEFAULT_PEDTYPE">
        <walk depart="0.00" departPos="221.00" arrival="7.00" arrivalPos="226.67" duration="7.00" routeLength="5.67" timeLoss="3.35" maxSpeed="1.55"/>
        <ride waitingTime="17.00" vehicle="bus.3" depart="24.00" arrival="159.00" arrivalPos="231.67" duration="135.00" routeLength="1773.33" timeLoss="18.62"/>
        <walk depart="159.00" departPos="231.67" arrival="174.00" arrivalPos="250.00" duration="15.00" routeLength="18.33" timeLoss="1.80" maxSpeed="1.39"/>
    </personinfo>
    <personinfo id="p67" depart="0.00" type="DEFAULT_PEDTYPE">
        <walk depart="0.00" departPos="221.00" arrival="8.00" arrivalPos="226.67" duration="8.00" routeLength="5.67" timeLoss="3.50" maxSpeed="1.26"/>
        <ride waitingTime="16.00" vehicle="bus.3" depart="24.00" arrival="159.00" arrivalPos="231.67" duration="135.00" routeLength="1773.33" timeLoss="18.62"/>
        <walk depart="159.00" departPos="231.67" arrival="175.00" arrivalPos="250.00" duration="16.00" routeLength="18.33" timeLoss="2.80" maxSpeed="1.39"/>
    </personinfo>
    <personinfo id="p73" depart="0.00" type="DEFAULT_PEDTYPE">
        <walk depart="0.00" departPos="221.00" arrival="7.00" arrivalPos="226.67" duration="7.00" routeLength="5.67" timeLoss="2.66" maxSpeed="1.31"/>
        <ride waitingTime="55.00" vehicle="bus.3" depart="62.00" arrival="160.00" arrivalPos="231.67" duration="98.00" routeLength="1330.00" timeLoss="14.22"/>
        <walk depart="160.00" departPos="231.67" arrival="175.00" arrivalPos="250.00" duration="15.00" routeLength="18.33" timeLoss="1.80" maxSpeed="1.39"/>
    </personinfo>
    <personinfo id="p42" depart="0.00" type="DEFAULT_PEDTYPE">
        <walk depart="0.00" departPos="221.00" arrival="6.00" arrivalPos="226.67" duration="6.00" routeLength="5.67" timeLoss="1.74" maxSpeed="1.33"/>
        <ride waitingTime="18.00" vehicle="bus.4" depart="24.00" arrival="160.00" arrivalPos="231.67" duration="136.00" routeLength="1773.34" timeLoss="17.62"/>
        <walk depart="160.00" departPos="231.67" arrival="175.00" arrivalPos="250.00" duration="15.00" routeLength="18.33" timeLoss="1.80" maxSpeed="1.39"/>
    </personinfo>
    <personinfo id="p76" depart="0.00" type="DEFAULT_PEDTYPE">
        <walk depart="0.00" departPos="221.00" arrival="8.00" arrivalPos="226.67" duration="8.00" routeLength="5.67" timeLoss="3.86" maxSpeed="1.37"/>
        <ride waitingTime="54.00" vehicle="bus.3" depart="62.00" arrival="160.00" arrivalPos="231.67" duration="98.00" routeLength="1330.00" timeLoss="14.22"/>
        <walk depart="160.00" departPos="231.67" arrival="176.00" arrivalPos="250.00" duration="16.00" routeLength="18.33" timeLoss="2.80" maxSpeed="1.39"/>
    </personinfo>
    <personinfo id="p44" depart="0.00" type="DEFAULT_PEDTYPE">
        <walk depart="0.00" departPos="221.00" arrival="5.00" arrivalPos="226.67" duration="5.00" routeLength="5.67" timeLoss="1.07" maxSpeed="1.44"/>
        <ride waitingTime="19.00" vehicle="bus.4" depart="24.00" arrival="160.00" arrivalPos="231.67" duration="136.00" routeLength="1773.34" timeLoss="17.62"/>
        <walk depart="160.00" departPos="231.67" arrival="176.00" arrivalPos="250.00" duration="16.00" routeLength="18.33" timeLoss="2.80" maxSpeed="1.39"/>
    </personinfo>
    <personinfo id="p48" depart="0.00" type="DEFAULT_PEDTYPE">
        <walk depart="0.00" departPos="221.00" arrival="9.00" arrivalPos="226.67" duration="9.00" routeLength="5.67" timeLoss="4.47" maxSpeed="1.25"/>
        <ride waitingTime="15.00" vehicle="bus.4" depart="24.00" arrival="161.00" arrivalPos="231.67" duration="137.00" routeLength="1773.34" timeLoss="17.62"/>
        <walk depart="161.00" departPos="231.67" arrival="176.00" arrivalPos="250.00" duration="15.00" routeLength="18.33" timeLoss="1.80" maxSpeed="1.39"/>
    </personinfo>
    <personinfo id="p23" depart="0.00" type="DEFAULT_PEDTYPE">
        <walk depart="0.00" departPos="221.00" arrival="7.00" arrivalPos="226.67" duration="7.00" routeLength="5.67" timeLoss="2.81" maxSpeed="1.35"/>
        <ride waitingTime="17.00" vehicle="bus.5" depart="24.00" arrival="162.00" arrivalPos="231.67" duration="138.00" routeLength="1773.33" timeLoss="17.62"/>
        <walk depart="162.00" departPos="231.67" arrival="177.00" arrivalPos="250.00" duration="15.00" routeLength="18.33" timeLoss="1.80" maxSpeed="1.39"/>
    </personinfo>
    <personinfo id="p51" depart="0.00" type="DEFAULT_PEDTYPE">
        <walk depart="0.00" departPos="221.00" arrival="6.00" arrivalPos="226.67" duration="6.00" routeLength="5.67" timeLoss="1.23" maxSpeed="1.19"/>
        <ride waitingTime="55.00" vehicle="bus.4" depart="61.00" arrival="162.00" arrivalPos="231.67" duration="101.00" routeLength="1330.00" timeLoss="13.22"/>
        <walk depart="162.00" departPos="231.67" arrival="177.00" arrivalPos="250.00" duration="15.00" routeLength="18.33" timeLoss="1.80" maxSpeed="1.39"/>
    </personinfo>
    <personinfo id="p31" depart="0.00" type="DEFAULT_PEDTYPE">
        <walk depart="0.00" departPos="221.00" arrival="4.00" arrivalPos="226.67" duration="4.00" routeLength="5.67" timeLoss="0.54" maxSpeed="1.64"/>
        <ride waitingTime="57.00" vehicle="bus.5" depart="61.00" arrival="163.00" arrivalPos="231.67" duration="102.00" routeLength="1330.00" timeLoss="13.22"/>
        <walk depart="163.00" departPos="231.67" arrival="178.00" arrivalPos="250.00" duration="15.00" routeLength="18.33" timeLoss="1.80" maxSpeed="1.39"/>
    </personinfo>
    <personinfo id="p58" depart="0.00" type="DEFAULT_PEDTYPE">
        <walk depart="0.00" departPos="221.00" arrival="11.00" arrivalPos="226.67" duration="11.00" routeLength="5.67" timeLoss="7.43" maxSpeed="1.59"/>
        <ride waitingTime="50.00" vehicle="bus.4" depart="61.00" arrival="162.00" arrivalPos="231.67" duration="101.00" routeLength="1330.00" timeLoss="13.22"/>
        <walk depart="162.00" departPos="231.67" arrival="178.00" arrivalPos="250.00" duration="16.00" routeLength="18.33" timeLoss="2.80" maxSpeed="1.39"/>
    </personinfo>
    <personinfo id="p33" depart="0.00" type="DEFAULT_PEDTYPE">
        <walk depart="0.00" departPos="221.00" arrival="6.00" arrivalPos="226.67" duration="6.00" routeLength="5.67" timeLoss="1.94" maxSpeed="1.40"/>
        <ride waitingTime="55.00" vehicle="bus.5" depart="61.00" arrival="164.00" arrivalPos="231.67" duration="103.00" routeLength="1330.00" timeLoss="13.22"/>
        <walk depart="164.00" departPos="231.67" arrival="179.00" arrivalPos="250.00" duration="15.00" routeLength="18.33" timeLoss="1.80" maxSpeed="1.39"/>
    </personinfo>
    <personinfo id="p35" depart="0.00" type="DEFAULT_PEDTYPE">
        <walk depart="0.00" departPos="221.00" arrival="6.00" arrivalPos="226.67" duration="6.00" routeLength="5.67" timeLoss="1.90" maxSpeed="1.38"/>
        <ride waitingTime="55.00" vehicle="bus.5" depart="61.00" arrival="164.00" arrivalPos="231.67" duration="103.00" routeLength="1330.00" timeLoss="13.22"/>
        <walk depart="164.00" departPos="231.67" arrival="180.00" arrivalPos="250.00" duration="16.00" routeLength="18.33" timeLoss="2.80" maxSpeed="1.39"/>
    </personinfo>
    <personinfo id="p107" depart="0.00" type="DEFAULT_PEDTYPE">
        <walk depart="0.00" departPos="221.00" arrival="9.00" arrivalPos="226.67" duration="9.00" routeLength="5.67" timeLoss="4.97" maxSpeed="1.41"/>
        <ride waitingTime="15.00" vehicle="bus.1" depart="24.00" arrival="186.00" arrivalPos="231.67" duration="162.00" routeLength="2216.67" timeLoss="18.03"/>
        <walk depart="186.00" departPos="231.67" arrival="201.00" arrivalPos="250.00" duration="15.00" routeLength="18.33" timeLoss="1.80" maxSpeed="1.39"/>
    </personinfo>
    <personinfo id="p11" depart="0.00" type="DEFAULT_PEDTYPE">
        <walk depart="0.00" departPos="221.00" arrival="4.00" arrivalPos="226.67" duration="4.00" routeLength="5.67" timeLoss="0.26" maxSpeed="1.51"/>
        <ride waitingTime="47.00" vehicle="bus.0" depart="51.00" arrival="186.00" arrivalPos="231.67" duration="135.00" routeLength="1773.34" timeLoss="17.62"/>
        <walk depart="186.00" departPos="231.67" arrival="201.00" arrivalPos="250.00" duration="15.00" routeLength="18.33" timeLoss="1.80" maxSpeed="1.39"/>
    </personinfo>
    <personinfo id="p83" depart="0.00" type="DEFAULT_PEDTYPE">
        <walk depart="0.00" departPos="221.00" arrival="7.00" arrivalPos="226.67" duration="7.00" routeLength="5.67" timeLoss="2.99" maxSpeed="1.41"/>
        <ride waitingTime="17.00" vehicle="bus.2" depart="24.00" arrival="187.00" arrivalPos="231.67" duration="163.00" routeLength="2216.66" timeLoss="27.03"/>
        <walk depart="187.00" departPos="231.67" arrival="202.00" arrivalPos="250.00" duration="15.00" routeLength="18.33" timeLoss="1.80" maxSpeed="1.39"/>
    </personinfo>
    <personinfo id="p2" depart="0.00" type="DEFAULT_PEDTYPE">
        <walk depart="0.00" departPos="221.00" arrival="6.00" arrivalPos="226.67" duration="6.00" routeLength="5.67" timeLoss="1.65" maxSpeed="1.30"/>
        <ride waitingTime="81.00" vehicle="bus.1" depart="87.00" arrival="186.00" arrivalPos="231.67" duration="99.00" routeLength="1330.00" timeLoss="13.22"/>
        <walk depart="186.00" departPos="231.67" arrival="202.00" arrivalPos="250.00" duration="16.00" routeLength="18.33" timeLoss="2.80" maxSpeed="1.39"/>
    </personinfo>