<?xml version="1.0" encoding="UTF-8"?>

<!-- generated on 2024-03-23 18:22:21 by Eclipse SUMO GUI Version 1.14.1
<configuration xmlns:xsi="http://www.w3.org/2001/XMLSchema-instance" xsi:noNamespaceSchemaLocation="http://sumo.dlr.de/xsd/sumoConfiguration.xsd">

    <input>
        <net-file value="singapore/singapore.net.xml"/>
        <route-files value="singapore/busFlows.rou.xml"/>
        <additional-files value="singapore/busstops.xml"/>
    </input>

    <output>
        <tripinfo-output value="tripinfo.xml"/>
    </output>

    <processing>
        <no-internal-links value="true"/>
    </processing>

    <traci_server>
        <remote-port value="49936"/>
    </traci_server>

</configuration>
-->

<tripinfos xmlns:xsi="http://www.w3.org/2001/XMLSchema-instance" xsi:noNamespaceSchemaLocation="http://sumo.dlr.de/xsd/tripinfo_file.xsd">
    <personinfo id="410475114.22.936" depart="936.00" type="DEFAULT_PEDTYPE">
        <walk depart="936.00" departPos="84.99" arrival="937.00" arrivalPos="85.99" duration="1.00" routeLength="1.00" timeLoss="0.28" maxSpeed="1.39"/>
        <ride waitingTime="237.00" vehicle="bus_22:0.0" depart="1174.00" arrival="1414.00" arrivalPos="18.84" duration="240.00" routeLength="880.79" timeLoss="24.21"/>
    </personinfo>
    <personinfo id="1847853709.43.203" depart="203.00" type="DEFAULT_PEDTYPE">
        <walk depart="203.00" departPos="41.23" arrival="204.00" arrivalPos="42.23" duration="1.00" routeLength="1.00" timeLoss="0.28" maxSpeed="1.39"/>
        <ride waitingTime="466.00" vehicle="bus_43:0.1" depart="670.00" arrival="1426.00" arrivalPos="10.31" duration="756.00" routeLength="2828.78" timeLoss="63.09"/>
    </personinfo>
    <personinfo id="410486991.43.43" depart="43.00" type="DEFAULT_PEDTYPE">
        <walk depart="43.00" departPos="194.33" arrival="44.00" arrivalPos="195.33" duration="1.00" routeLength="1.00" timeLoss="0.28" maxSpeed="1.39"/>
        <ride waitingTime="1629.00" vehicle="bus_43:0.0" depart="1673.00" arrival="1798.00" arrivalPos="65.87" duration="125.00" routeLength="457.13" timeLoss="12.52"/>
    </personinfo>
    <personinfo id="410474348.43.703" depart="703.00" type="DEFAULT_PEDTYPE">
        <walk depart="703.00" departPos="25.59" arrival="704.00" arrivalPos="26.59" duration="1.00" routeLength="1.00" timeLoss="0.28" maxSpeed="1.39"/>
        <ride waitingTime="551.00" vehicle="bus_43:0.1" depart="1255.00" arrival="1881.00" arrivalPos="26.46" duration="626.00" routeLength="2349.73" timeLoss="51.92"/>
    </personinfo>
    <personinfo id="1531005322.43.106" depart="106.00" type="DEFAULT_PEDTYPE">
        <walk depart="106.00" departPos="12.13" arrival="107.00" arrivalPos="13.13" duration="1.00" routeLength="1.00" timeLoss="0.28" maxSpeed="1.39"/>
        <ride waitingTime="1158.00" vehicle="bus_22:0.0" depart="1265.00" arrival="1982.00" arrivalPos="107.55" duration="717.00" routeLength="2653.74" timeLoss="65.80"/>
    </personinfo>
    <personinfo id="410460005.22.1234" depart="1234.00" type="DEFAULT_PEDTYPE">
        <walk depart="1234.00" departPos="284.34" arrival="1468.00" arrivalPos="0.00" duration="234.00" routeLength="284.34" timeLoss="29.28" maxSpeed="1.39"/>
        <ride waitingTime="335.00" vehicle="bus_22:0.3" depart="1803.00" arrival="2092.00" arrivalPos="39.16" duration="289.00" routeLength="1083.86" timeLoss="24.65"/>
    </personinfo>
    <personinfo id="410486969.43.1592" depart="1592.00" type="DEFAULT_PEDTYPE">
        <walk depart="1592.00" departPos="0.12" arrival="1593.00" arrivalPos="1.12" duration="1.00" routeLength="1.00" timeLoss="0.28" maxSpeed="1.39"/>
        <ride waitingTime="385.00" vehicle="bus_43:0.0" depart="1978.00" arrival="2150.00" arrivalPos="73.30" duration="172.00" routeLength="634.58" timeLoss="16.25"/>
    </personinfo>
    <personinfo id="410482564.22.253" depart="253.00" type="DEFAULT_PEDTYPE">
        <walk depart="253.00" departPos="87.68" arrival="254.00" arrivalPos="88.68" duration="1.00" routeLength="1.00" timeLoss="0.28" maxSpeed="1.39"/>
        <ride waitingTime="1656.00" vehicle="bus_22:0.0" depart="1910.00" arrival="2205.00" arrivalPos="34.18" duration="295.00" routeLength="1093.88" timeLoss="27.22"/>
    </personinfo>
    <personinfo id="1849631331.43.353" depart="353.00" type="DEFAULT_PEDTYPE">
        <walk depart="353.00" departPos="42.45" arrival="354.00" arrivalPos="43.45" duration="1.00" routeLength="1.00" timeLoss="0.28" maxSpeed="1.39"/>
        <ride waitingTime="512.00" vehicle="bus_43:0.1" depart="866.00" arrival="2283.00" arrivalPos="210.31" duration="1417.00" routeLength="5298.18" timeLoss="116.83"/>
    </personinfo>
    <personinfo id="410486955.43.274" depart="274.00" type="DEFAULT_PEDTYPE">
        <walk depart="274.00" departPos="49.88" arrival="275.00" arrivalPos="50.88" duration="1.00" routeLength="1.00" timeLoss="0.28" maxSpeed="1.39"/>
        <ride waitingTime="1524.00" vehicle="bus_43:0.0" depart="1799.00" arrival="2300.00" arrivalPos="38.16" duration="501.00" routeLength="1850.39" timeLoss="45.76"/>
    </personinfo>
    <personinfo id="410475114.22.1006" depart="1006.00" type="DEFAULT_PEDTYPE">
        <walk depart="1006.00" departPos="84.99" arrival="1007.00" arrivalPos="85.99" duration="1.00" routeLength="1.00" timeLoss="0.28" maxSpeed="1.39"/>
        <ride waitingTime="167.00" vehicle="bus_22:0.0" depart="1174.00" arrival="2352.00" arrivalPos="25.97" duration="1178.00" routeLength="4349.31" timeLoss="108.26"/>
    </personinfo>
    <personinfo id="410480716.22.2103" depart="2103.00" type="DEFAULT_PEDTYPE">
        <walk depart="2103.00" departPos="9.98" arrival="2104.00" arrivalPos="10.98" duration="1.00" routeLength="1.00" timeLoss="0.28" maxSpeed="1.39"/>
        <ride waitingTime="249.00" vehicle="bus_22:0.0" depart="2353.00" arrival="2448.00" arrivalPos="200.17" duration="95.00" routeLength="348.33" timeLoss="10.05"/>
    </personinfo>
    <personinfo id="410467153.22.1990" depart="1990.00" type="DEFAULT_PEDTYPE">
        <walk depart="1990.00" departPos="8.01" arrival="1991.00" arrivalPos="9.01" duration="1.00" routeLength="1.00" timeLoss="0.28" maxSpeed="1.39"/>
        <ride waitingTime="56.00" vehicle="bus_22:0.2" depart="2047.00" arrival="2479.00" arrivalPos="44.59" duration="432.00" routeLength="1598.86" timeLoss="39.06"/>
    </personinfo>
    <personinfo id="410462101.22.2028" depart="2028.00" type="DEFAULT_PEDTYPE">
        <walk depart="2028.00" departPos="11.46" arrival="2029.00" arrivalPos="12.46" duration="1.00" routeLength="1.00" timeLoss="0.28" maxSpeed="1.39"/>
        <ride waitingTime="156.00" vehicle="bus_22:0.2" depart="2185.00" arrival="2479.00" arrivalPos="44.59" duration="294.00" routeLength="1097.22" timeLoss="26.40"/>
    </personinfo>
    <personinfo id="410480716.22.1553" depart="1553.00" type="DEFAULT_PEDTYPE">
        <walk depart="1553.00" departPos="9.98" arrival="1554.00" arrivalPos="10.98" duration="1.00" routeLength="1.00" timeLoss="0.28" maxSpeed="1.39"/>
        <ride waitingTime="799.00" vehicle="bus_22:0.0" depart="2353.00" arrival="2486.00" arrivalPos="328.24" duration="133.00" routeLength="476.39" timeLoss="15.82"/>
    </personinfo>
    <personinfo id="410462291.43.293" depart="293.00" type="DEFAULT_PEDTYPE">
        <walk depart="293.00" departPos="415.85" arrival="626.00" arrivalPos="0.00" duration="333.00" routeLength="415.85" timeLoss="33.59" maxSpeed="1.39"/>
        <ride waitingTime="848.00" vehicle="bus_43:0.0" depart="1474.00" arrival="2491.00" arrivalPos="44.56" duration="1017.00" routeLength="3742.86" timeLoss="94.22"/>
    </personinfo>
    <personinfo id="410482520.22.1899" depart="1899.00" type="DEFAULT_PEDTYPE">
        <walk depart="1899.00" departPos="2.85" arrival="1900.00" arrivalPos="3.85" duration="1.00" routeLength="1.00" timeLoss="0.28" maxSpeed="1.39"/>
        <ride waitingTime="111.00" vehicle="bus_22:0.1" depart="2011.00" arrival="2505.00" arrivalPos="103.66" duration="494.00" routeLength="1843.54" timeLoss="43.36"/>
    </personinfo>
    <personinfo id="410462211.43.1323" depart="1323.00" type="DEFAULT_PEDTYPE">
        <walk depart="1323.00" departPos="18.63" arrival="1324.00" arrivalPos="19.63" duration="1.00" routeLength="1.00" timeLoss="0.28" maxSpeed="1.39"/>
        <ride waitingTime="60.00" vehicle="bus_43:0.0" depart="1384.00" arrival="2575.00" arrivalPos="181.35" duration="1191.00" routeLength="4361.34" timeLoss="111.39"/>
    </personinfo>
    <personinfo id="410462103.22.1242" depart="1242.00" type="DEFAULT_PEDTYPE">
        <walk depart="1242.00" departPos="11.46" arrival="1243.00" arrivalPos="12.46" duration="1.00" routeLength="1.00" timeLoss="0.28" maxSpeed="1.39"/>
        <ride waitingTime="326.00" vehicle="bus_22:0.1" depart="1569.00" arrival="2580.00" arrivalPos="107.54" duration="1011.00" routeLength="3750.91" timeLoss="92.19"/>
    </personinfo>
    <personinfo id="410482570.43.2519" depart="2519.00" type="DEFAULT_PEDTYPE">
        <walk depart="2519.00" departPos="91.56" arrival="2520.00" arrivalPos="92.56" duration="1.00" routeLength="1.00" timeLoss="0.28" maxSpeed="1.39"/>
        <ride waitingTime="61.00" vehicle="bus_22:0.1" depart="2581.00" arrival="2626.00" arrivalPos="263.31" duration="45.00" routeLength="155.80" timeLoss="7.03"/>
    </personinfo>
    <personinfo id="410462103.22.1855" depart="1855.00" type="DEFAULT_PEDTYPE">
        <walk depart="1855.00" departPos="11.46" arrival="1856.00" arrivalPos="12.46" duration="1.00" routeLength="1.00" timeLoss="0.28" maxSpeed="1.39"/>
        <ride waitingTime="329.00" vehicle="bus_22:0.2" depart="2185.00" arrival="2631.00" arrivalPos="18.84" duration="446.00" routeLength="1642.69" timeLoss="42.36"/>
    </personinfo>
    <personinfo id="410486969.43.2144" depart="2144.00" type="DEFAULT_PEDTYPE">
        <walk depart="2144.00" departPos="0.12" arrival="2145.00" arrivalPos="1.12" duration="1.00" routeLength="1.00" timeLoss="0.28" maxSpeed="1.39"/>
        <ride waitingTime="437.00" vehicle="bus_43:0.1" depart="2582.00" arrival="2753.00" arrivalPos="73.29" duration="171.00" routeLength="634.59" timeLoss="15.24"/>
    </personinfo>
    <personinfo id="410462103.22.1105" depart="1105.00" type="DEFAULT_PEDTYPE">
        <walk depart="1105.00" departPos="11.46" arrival="1106.00" arrivalPos="12.46" duration="1.00" routeLength="1.00" timeLoss="0.28" maxSpeed="1.39"/>
        <ride waitingTime="463.00" vehicle="bus_22:0.1" depart="1569.00" arrival="2806.00" arrivalPos="34.14" duration="1237.00" routeLength="4580.08" timeLoss="113.98"/>
    </personinfo>
    <personinfo id="410459651.22.383" depart="383.00" type="DEFAULT_PEDTYPE">
        <walk depart="383.00" departPos="15.18" arrival="384.00" arrivalPos="16.18" duration="1.00" routeLength="1.00" timeLoss="0.28" maxSpeed="1.39"/>
        <ride waitingTime="235.00" vehicle="bus_22:0.0" depart="619.00" arrival="2837.00" arrivalPos="44.39" duration="2218.00" routeLength="8203.92" timeLoss="201.15"/>
    </personinfo>
    <personinfo id="410471030.22.1935" depart="1935.00" type="DEFAULT_PEDTYPE">
        <walk depart="1935.00" departPos="18.18" arrival="1936.00" arrivalPos="19.18" duration="1.00" routeLength="1.00" timeLoss="0.28" maxSpeed="1.39"/>
        <ride waitingTime="271.00" vehicle="bus_22:0.0" depart="2207.00" arrival="2837.00" arrivalPos="44.39" duration="630.00" routeLength="2293.32" timeLoss="63.69"/>
    </personinfo>
    <personinfo id="410480716.22.1727" depart="1727.00" type="DEFAULT_PEDTYPE">
        <walk depart="1727.00" departPos="9.98" arrival="1728.00" arrivalPos="10.98" duration="1.00" routeLength="1.00" timeLoss="0.28" maxSpeed="1.39"/>
        <ride waitingTime="625.00" vehicle="bus_22:0.0" depart="2353.00" arrival="2838.00" arrivalPos="44.39" duration="485.00" routeLength="1762.20" timeLoss="49.23"/>
    </personinfo>
    <personinfo id="410464248.22.359" depart="359.00" type="DEFAULT_PEDTYPE">
        <walk depart="359.00" departPos="23.64" arrival="360.00" arrivalPos="24.64" duration="1.00" routeLength="1.00" timeLoss="0.28" maxSpeed="1.39"/>
        <ride waitingTime="2370.00" vehicle="bus_22:0.0" depart="2730.00" arrival="2838.00" arrivalPos="44.39" duration="108.00" routeLength="390.39" timeLoss="11.79"/>
    </personinfo>
    <personinfo id="410462293.43.2113" depart="2113.00" type="DEFAULT_PEDTYPE">
        <walk depart="2113.00" departPos="10.48" arrival="2114.00" arrivalPos="11.48" duration="1.00" routeLength="1.00" timeLoss="0.28" maxSpeed="1.39"/>
        <ride waitingTime="365.00" vehicle="bus_43:0.2" depart="2479.00" arrival="2881.00" arrivalPos="210.30" duration="402.00" routeLength="1478.45" timeLoss="36.44"/>
    </personinfo>
    <personinfo id="410462291.43.1417" depart="1417.00" type="DEFAULT_PEDTYPE">
        <walk depart="1417.00" departPos="415.85" arrival="1756.00" arrivalPos="0.00" duration="339.00" routeLength="415.85" timeLoss="39.59" maxSpeed="1.39"/>
        <ride waitingTime="329.00" vehicle="bus_43:0.1" depart="2085.00" arrival="2903.00" arrivalPos="38.15" duration="818.00" routeLength="3042.75" timeLoss="68.93"/>
    </personinfo>
    <personinfo id="410482568.22.68" depart="68.00" type="DEFAULT_PEDTYPE">
        <walk depart="68.00" departPos="3.17" arrival="69.00" arrivalPos="4.17" duration="1.00" routeLength="1.00" timeLoss="0.28" maxSpeed="1.39"/>
        <ride waitingTime="1550.00" vehicle="bus_22:0.0" depart="1619.00" arrival="2950.00" arrivalPos="37.69" duration="1331.00" routeLength="4869.77" timeLoss="127.33"/>
    </personinfo>
    <personinfo id="410482568.22.103" depart="103.00" type="DEFAULT_PEDTYPE">
        <walk depart="103.00" departPos="3.17" arrival="104.00" arrivalPos="4.17" duration="1.00" routeLength="1.00" timeLoss="0.28" maxSpeed="1.39"/>
        <ride waitingTime="1515.00" vehicle="bus_22:0.0" depart="1619.00" arrival="2950.00" arrivalPos="37.69" duration="1331.00" routeLength="4869.77" timeLoss="127.33"/>
    </personinfo>
    <personinfo id="410480724.22.801" depart="801.00" type="DEFAULT_PEDTYPE">
        <walk depart="801.00" departPos="26.17" arrival="802.00" arrivalPos="27.17" duration="1.00" routeLength="1.00" timeLoss="0.28" maxSpeed="1.39"/>
        <ride waitingTime="1841.00" vehicle="bus_22:0.0" depart="2643.00" arrival="2951.00" arrivalPos="37.69" duration="308.00" routeLength="1097.44" timeLoss="32.37"/>
    </personinfo>
    <personinfo id="410464248.22.1481" depart="1481.00" type="DEFAULT_PEDTYPE">
        <walk depart="1481.00" departPos="23.64" arrival="1482.00" arrivalPos="24.64" duration="1.00" routeLength="1.00" timeLoss="0.28" maxSpeed="1.39"/>
        <ride waitingTime="1248.00" vehicle="bus_22:0.0" depart="2730.00" arrival="2951.00" arrivalPos="37.69" duration="221.00" routeLength="785.70" timeLoss="23.39"/>
    </personinfo>
    <personinfo id="410486955.43.850" depart="850.00" type="DEFAULT_PEDTYPE">
        <walk depart="850.00" departPos="49.88" arrival="851.00" arrivalPos="50.88" duration="1.00" routeLength="1.00" timeLoss="0.28" maxSpeed="1.39"/>
        <ride waitingTime="948.00" vehicle="bus_43:0.0" depart="1799.00" arrival="2961.00" arrivalPos="88.09" duration="1162.00" routeLength="4291.78" timeLoss="105.34"/>
    </personinfo>
    <personinfo id="410486991.43.2135" depart="2135.00" type="DEFAULT_PEDTYPE">
        <walk depart="2135.00" departPos="194.33" arrival="2136.00" arrivalPos="195.33" duration="1.00" routeLength="1.00" timeLoss="0.28" maxSpeed="1.39"/>
        <ride waitingTime="149.00" vehicle="bus_43:0.1" depart="2285.00" arrival="3001.00" arrivalPos="100.98" duration="716.00" routeLength="2672.29" timeLoss="60.26"/>
    </personinfo>
    <personinfo id="1531005322.22.598" depart="598.00" type="DEFAULT_PEDTYPE">
        <walk depart="598.00" departPos="12.13" arrival="599.00" arrivalPos="13.13" duration="1.00" routeLength="1.00" timeLoss="0.28" maxSpeed="1.39"/>
        <ride waitingTime="666.00" vehicle="bus_22:0.0" depart="1265.00" arrival="3086.00" arrivalPos="11.72" duration="1821.00" routeLength="6646.64" timeLoss="172.98"/>
    </personinfo>
    <personinfo id="410465917.22.1690" depart="1690.00" type="DEFAULT_PEDTYPE">
        <walk depart="1690.00" departPos="21.70" arrival="1691.00" arrivalPos="22.70" duration="1.00" routeLength="1.00" timeLoss="0.28" maxSpeed="1.39"/>
        <ride waitingTime="1262.00" vehicle="bus_22:0.0" depart="2953.00" arrival="3086.00" arrivalPos="11.72" duration="133.00" routeLength="475.11" timeLoss="12.14"/>
    </personinfo>
    <personinfo id="410465917.22.1882" depart="1882.00" type="DEFAULT_PEDTYPE">
        <walk depart="1882.00" departPos="21.70" arrival="1883.00" arrivalPos="22.70" duration="1.00" routeLength="1.00" timeLoss="0.28" maxSpeed="1.39"/>
        <ride waitingTime="1070.00" vehicle="bus_22:0.0" depart="2953.00" arrival="3087.00" arrivalPos="11.72" duration="134.00" routeLength="475.08" timeLoss="12.14"/>
    </personinfo>
    <personinfo id="1849631331.43.441" depart="441.00" type="DEFAULT_PEDTYPE">
        <walk depart="441.00" departPos="42.45" arrival="442.00" arrivalPos="43.45" duration="1.00" routeLength="1.00" timeLoss="0.28" maxSpeed="1.39"/>
        <ride waitingTime="424.00" vehicle="bus_43:0.1" depart="866.00" arrival="3095.00" arrivalPos="44.58" duration="2229.00" routeLength="8305.76" timeLoss="188.33"/>
    </personinfo>
    <personinfo id="410474348.43.1421" depart="1421.00" type="DEFAULT_PEDTYPE">
        <walk depart="1421.00" departPos="25.59" arrival="1422.00" arrivalPos="26.59" duration="1.00" routeLength="1.00" timeLoss="0.28" maxSpeed="1.39"/>
        <ride waitingTime="425.00" vehicle="bus_43:0.2" depart="1847.00" arrival="3118.00" arrivalPos="34.60" duration="1271.00" routeLength="4692.69" timeLoss="114.52"/>
    </personinfo>
    <personinfo id="410462103.22.2083" depart="2083.00" type="DEFAULT_PEDTYPE">
        <walk depart="2083.00" departPos="11.46" arrival="2084.00" arrivalPos="12.46" duration="1.00" routeLength="1.00" timeLoss="0.28" maxSpeed="1.39"/>
        <ride waitingTime="101.00" vehicle="bus_22:0.2" depart="2185.00" arrival="3121.00" arrivalPos="103.67" duration="936.00" routeLength="3486.21" timeLoss="81.72"/>
    </personinfo>
    <personinfo id="410482520.22.2043" depart="2043.00" type="DEFAULT_PEDTYPE">
        <walk depart="2043.00" departPos="2.85" arrival="2044.00" arrivalPos="3.85" duration="1.00" routeLength="1.00" timeLoss="0.28" maxSpeed="1.39"/>
        <ride waitingTime="588.00" vehicle="bus_22:0.2" depart="2632.00" arrival="3121.00" arrivalPos="103.67" duration="489.00" routeLength="1843.57" timeLoss="39.36"/>
    </personinfo>
    <personinfo id="410462291.43.960" depart="960.00" type="DEFAULT_PEDTYPE">
        <walk depart="960.00" departPos="415.85" arrival="1291.00" arrivalPos="0.00" duration="331.00" routeLength="415.85" timeLoss="31.59" maxSpeed="1.39"/>
        <ride waitingTime="183.00" vehicle="bus_43:0.0" depart="1474.00" arrival="3136.00" arrivalPos="103.67" duration="1662.00" routeLength="6131.85" timeLoss="151.55"/>
    </personinfo>
    <personinfo id="410460005.22.2702" depart="2702.00" type="DEFAULT_PEDTYPE">
        <walk depart="2702.00" departPos="284.34" arrival="2929.00" arrivalPos="0.00" duration="227.00" routeLength="284.34" timeLoss="22.28" maxSpeed="1.39"/>
        <ride waitingTime="73.00" vehicle="bus_22:0.5" depart="3002.00" arrival="3137.00" arrivalPos="11.35" duration="135.00" routeLength="501.90" timeLoss="12.59"/>
    </personinfo>
    <personinfo id="410462211.43.2418" depart="2418.00" type="DEFAULT_PEDTYPE">
        <walk depart="2418.00" departPos="18.63" arrival="2419.00" arrivalPos="19.63" duration="1.00" routeLength="1.00" timeLoss="0.28" maxSpeed="1.39"/>
        <ride waitingTime="175.00" vehicle="bus_43:0.2" depart="2594.00" arrival="3188.00" arrivalPos="16.12" duration="594.00" routeLength="2168.37" timeLoss="57.19"/>
    </personinfo>
    <personinfo id="410482520.22.2172" depart="2172.00" type="DEFAULT_PEDTYPE">
        <walk depart="2172.00" departPos="2.85" arrival="2173.00" arrivalPos="3.85" duration="1.00" routeLength="1.00" timeLoss="0.28" maxSpeed="1.39"/>
        <ride waitingTime="459.00" vehicle="bus_22:0.2" depart="2632.00" arrival="3196.00" arrivalPos="107.56" duration="564.00" routeLength="2108.21" timeLoss="47.82"/>
    </personinfo>
    <personinfo id="410482562.22.2179" depart="2179.00" type="DEFAULT_PEDTYPE">
        <walk depart="2179.00" departPos="148.79" arrival="2180.00" arrivalPos="149.79" duration="1.00" routeLength="1.00" timeLoss="0.28" maxSpeed="1.39"/>
        <ride waitingTime="170.00" vehicle="bus_22:0.1" depart="2350.00" arrival="3199.00" arrivalPos="149.89" duration="849.00" routeLength="3136.58" timeLoss="80.03"/>
    </personinfo>
    <personinfo id="410482568.22.568" depart="568.00" type="DEFAULT_PEDTYPE">
        <walk depart="568.00" departPos="3.17" arrival="569.00" arrivalPos="4.17" duration="1.00" routeLength="1.00" timeLoss="0.28" maxSpeed="1.39"/>
        <ride waitingTime="1050.00" vehicle="bus_22:0.0" depart="1619.00" arrival="3214.00" arrivalPos="12.27" duration="1595.00" routeLength="5803.58" timeLoss="152.58"/>
    </personinfo>
    <personinfo id="410459904.22.2059" depart="2059.00" type="DEFAULT_PEDTYPE">
        <walk depart="2059.00" departPos="19.22" arrival="2060.00" arrivalPos="20.22" duration="1.00" routeLength="1.00" timeLoss="0.28" maxSpeed="1.39"/>
        <ride waitingTime="61.00" vehicle="bus_22:0.3" depart="2121.00" arrival="3215.00" arrivalPos="18.82" duration="1094.00" routeLength="4129.03" timeLoss="83.95"/>
    </personinfo>
    <personinfo id="410471030.22.1355" depart="1355.00" type="DEFAULT_PEDTYPE">
        <walk depart="1355.00" departPos="18.18" arrival="1356.00" arrivalPos="19.18" duration="1.00" routeLength="1.00" timeLoss="0.28" maxSpeed="1.39"/>
        <ride waitingTime="851.00" vehicle="bus_22:0.0" depart="2207.00" arrival="3215.00" arrivalPos="12.27" duration="1008.00" routeLength="3622.45" timeLoss="100.54"/>
    </personinfo>
    <personinfo id="410464248.22.859" depart="859.00" type="DEFAULT_PEDTYPE">
        <walk depart="859.00" departPos="23.64" arrival="860.00" arrivalPos="24.64" duration="1.00" routeLength="1.00" timeLoss="0.28" maxSpeed="1.39"/>
        <ride waitingTime="1870.00" vehicle="bus_22:0.0" depart="2730.00" arrival="3215.00" arrivalPos="12.27" duration="485.00" routeLength="1719.52" timeLoss="48.64"/>
    </personinfo>
    <personinfo id="410465916.22.261" depart="261.00" type="DEFAULT_PEDTYPE">
        <walk depart="261.00" departPos="28.40" arrival="262.00" arrivalPos="29.40" duration="1.00" routeLength="1.00" timeLoss="0.28" maxSpeed="1.39"/>
        <ride waitingTime="2578.00" vehicle="bus_22:0.0" depart="2840.00" arrival="3216.00" arrivalPos="12.27" duration="376.00" routeLength="1329.14" timeLoss="36.85"/>
    </personinfo>
    <personinfo id="410465915.22.1620" depart="1620.00" type="DEFAULT_PEDTYPE">
        <walk depart="1620.00" departPos="138.08" arrival="1731.00" arrivalPos="0.00" duration="111.00" routeLength="138.08" timeLoss="11.58" maxSpeed="1.39"/>
        <ride waitingTime="1357.00" vehicle="bus_22:0.0" depart="3088.00" arrival="3216.00" arrivalPos="12.27" duration="128.00" routeLength="458.78" timeLoss="13.12"/>
    </personinfo>
    <personinfo id="410462103.22.1273" depart="1273.00" type="DEFAULT_PEDTYPE">
        <walk depart="1273.00" departPos="11.46" arrival="1274.00" arrivalPos="12.46" duration="1.00" routeLength="1.00" timeLoss="0.28" maxSpeed="1.39"/>
        <ride waitingTime="295.00" vehicle="bus_22:0.1" depart="1569.00" arrival="3237.00" arrivalPos="42.17" duration="1668.00" routeLength="6171.37" timeLoss="154.87"/>
    </personinfo>
    <personinfo id="410486991.43.641" depart="641.00" type="DEFAULT_PEDTYPE">
        <walk depart="641.00" departPos="194.33" arrival="642.00" arrivalPos="195.33" duration="1.00" routeLength="1.00" timeLoss="0.28" maxSpeed="1.39"/>
        <ride waitingTime="1031.00" vehicle="bus_43:0.0" depart="1673.00" arrival="3257.00" arrivalPos="263.31" duration="1584.00" routeLength="5816.99" timeLoss="149.37"/>
    </personinfo>
    <personinfo id="1847853709.43.1608" depart="1608.00" type="DEFAULT_PEDTYPE">
        <walk depart="1608.00" departPos="41.23" arrival="1609.00" arrivalPos="42.23" duration="1.00" routeLength="1.00" timeLoss="0.28" maxSpeed="1.39"/>
        <ride waitingTime="261.00" vehicle="bus_43:0.3" depart="1870.00" arrival="3276.00" arrivalPos="11.15" duration="1406.00" routeLength="5284.02" timeLoss="112.26"/>
    </personinfo>
    <personinfo id="410459897.22.1263" depart="1263.00" type="DEFAULT_PEDTYPE">
        <walk depart="1263.00" departPos="23.17" arrival="1264.00" arrivalPos="24.17" duration="1.00" routeLength="1.00" timeLoss="0.28" maxSpeed="1.39"/>
        <ride waitingTime="230.00" vehicle="bus_22:0.2" depart="1494.00" arrival="3324.00" arrivalPos="12.11" duration="1830.00" routeLength="6802.88" timeLoss="158.84"/>
    </personinfo>
    <personinfo id="410459904.22.1222" depart="1222.00" type="DEFAULT_PEDTYPE">
        <walk depart="1222.00" departPos="19.22" arrival="1223.00" arrivalPos="20.22" duration="1.00" routeLength="1.00" timeLoss="0.28" maxSpeed="1.39"/>
        <ride waitingTime="298.00" vehicle="bus_22:0.2" depart="1521.00" arrival="3324.00" arrivalPos="12.11" duration="1803.00" routeLength="6711.36" timeLoss="155.15"/>
    </personinfo>
    <personinfo id="410462211.43.303" depart="303.00" type="DEFAULT_PEDTYPE">
        <walk depart="303.00" departPos="18.63" arrival="304.00" arrivalPos="19.63" duration="1.00" routeLength="1.00" timeLoss="0.28" maxSpeed="1.39"/>
        <ride waitingTime="1080.00" vehicle="bus_43:0.0" depart="1384.00" arrival="3347.00" arrivalPos="12.11" duration="1963.00" routeLength="7188.56" timeLoss="185.88"/>
    </personinfo>
    <personinfo id="410482572.43.2656" depart="2656.00" type="DEFAULT_PEDTYPE">
        <walk depart="2656.00" departPos="20.76" arrival="2657.00" arrivalPos="21.76" duration="1.00" routeLength="1.00" timeLoss="0.28" maxSpeed="1.39"/>
        <ride waitingTime="134.00" vehicle="bus_43:0.0" depart="2791.00" arrival="3347.00" arrivalPos="12.11" duration="556.00" routeLength="2021.88" timeLoss="56.91"/>
    </personinfo>
    <personinfo id="410462101.22.3351" depart="3351.00" type="DEFAULT_PEDTYPE">
        <walk depart="3351.00" departPos="11.46" arrival="3352.00" arrivalPos="12.46" duration="1.00" routeLength="1.00" timeLoss="0.28" maxSpeed="1.39"/>
        <ride waitingTime="21.00" vehicle="bus_22:0.4" depart="-1" arrival="3373.00" arrivalPos="27.46" duration="3373.00" routeLength="0.01" timeLoss="0.00"/>
    </personinfo>
    <personinfo id="410465915.22.361" depart="361.00" type="DEFAULT_PEDTYPE">
        <walk depart="361.00" departPos="138.08" arrival="471.00" arrivalPos="0.00" duration="110.00" routeLength="138.08" timeLoss="10.58" maxSpeed="1.39"/>
        <ride waitingTime="2617.00" vehicle="bus_22:0.0" depart="3088.00" arrival="3414.00" arrivalPos="85.51" duration="326.00" routeLength="1184.32" timeLoss="31.16"/>
    </personinfo>
    <personinfo id="410465915.22.1603" depart="1603.00" type="DEFAULT_PEDTYPE">
        <walk depart="1603.00" departPos="138.08" arrival="1715.00" arrivalPos="0.00" duration="112.00" routeLength="138.08" timeLoss="12.58" maxSpeed="1.39"/>
        <ride waitingTime="1373.00" vehicle="bus_22:0.0" depart="3088.00" arrival="3414.00" arrivalPos="85.51" duration="326.00" routeLength="1184.32" timeLoss="31.16"/>
    </personinfo>
    <personinfo id="410465915.22.1757" depart="1757.00" type="DEFAULT_PEDTYPE">
        <walk depart="1757.00" departPos="138.08" arrival="1868.00" arrivalPos="0.00" duration="111.00" routeLength="138.08" timeLoss="11.58" maxSpeed="1.39"/>
        <ride waitingTime="1220.00" vehicle="bus_22:0.0" depart="3088.00" arrival="3415.00" arrivalPos="85.51" duration="327.00" routeLength="1184.27" timeLoss="31.16"/>
    </personinfo>
    <personinfo id="410465915.22.2039" depart="2039.00" type="DEFAULT_PEDTYPE">
        <walk depart="2039.00" departPos="138.08" arrival="2150.00" arrivalPos="0.00" duration="111.00" routeLength="138.08" timeLoss="11.58" maxSpeed="1.39"/>
        <ride waitingTime="938.00" vehicle="bus_22:0.0" depart="3088.00" arrival="3415.00" arrivalPos="85.51" duration="327.00" routeLength="1184.27" timeLoss="31.16"/>
    </personinfo>
    <personinfo id="410465915.22.2452" depart="2452.00" type="DEFAULT_PEDTYPE">
        <walk depart="2452.00" departPos="138.08" arrival="2563.00" arrivalPos="0.00" duration="111.00" routeLength="138.08" timeLoss="11.58" maxSpeed="1.39"/>
        <ride waitingTime="525.00" vehicle="bus_22:0.0" depart="3088.00" arrival="3416.00" arrivalPos="85.51" duration="328.00" routeLength="1184.27" timeLoss="31.16"/>
    </personinfo>
    <personinfo id="410465915.22.2554" depart="2554.00" type="DEFAULT_PEDTYPE">
        <walk depart="2554.00" departPos="138.08" arrival="2665.00" arrivalPos="0.00" duration="111.00" routeLength="138.08" timeLoss="11.58" maxSpeed="1.39"/>
        <ride waitingTime="423.00" vehicle="bus_22:0.0" depart="3088.00" arrival="3416.00" arrivalPos="85.51" duration="328.00" routeLength="1184.27" timeLoss="31.16"/>
    </personinfo>
    <personinfo id="410465915.22.2743" depart="2743.00" type="DEFAULT_PEDTYPE">
        <walk depart="2743.00" departPos="138.08" arrival="2855.00" arrivalPos="0.00" duration="112.00" routeLength="138.08" timeLoss="12.58" maxSpeed="1.39"/>
        <ride waitingTime="233.00" vehicle="bus_22:0.0" depart="3088.00" arrival="3417.00" arrivalPos="85.51" duration="329.00" routeLength="1184.27" timeLoss="31.16"/>
    </personinfo>
    <personinfo id="410462762.22.1313" depart="1313.00" type="DEFAULT_PEDTYPE">
        <walk depart="1313.00" departPos="651.30" arrival="1832.00" arrivalPos="0.00" duration="519.00" routeLength="651.30" timeLoss="50.06" maxSpeed="1.39"/>
        <ride waitingTime="1386.00" vehicle="bus_22:0.0" depart="3218.00" arrival="3417.00" arrivalPos="85.51" duration="199.00" routeLength="725.55" timeLoss="18.04"/>
    </personinfo>