<?xml version="1.0" encoding="UTF-8"?>

<!-- generated on 2024-03-10 23:36:40 by Eclipse SUMO GUI Version 1.14.1
<configuration xmlns:xsi="http://www.w3.org/2001/XMLSchema-instance" xsi:noNamespaceSchemaLocation="http://sumo.dlr.de/xsd/sumoConfiguration.xsd">

    <input>
        <net-file value="singapore/singapore.net.xml"/>
        <route-files value="singapore/busFlows.rou.xml"/>
        <additional-files value="singapore/busstops.xml"/>
    </input>

    <output>
        <tripinfo-output value="tripinfo.xml"/>
    </output>

    <processing>
        <no-internal-links value="true"/>
    </processing>

    <traci_server>
        <remote-port value="56402"/>
    </traci_server>

</configuration>
-->

<tripinfos xmlns:xsi="http://www.w3.org/2001/XMLSchema-instance" xsi:noNamespaceSchemaLocation="http://sumo.dlr.de/xsd/tripinfo_file.xsd">
    <personinfo id="410462103.22.159" depart="159.00" type="DEFAULT_PEDTYPE">
        <walk depart="159.00" departPos="11.46" arrival="160.00" arrivalPos="12.46" duration="1.00" routeLength="1.00" timeLoss="0.28" maxSpeed="1.39"/>
        <ride waitingTime="100.00" vehicle="bus_22:0.0" depart="260.00" arrival="514.00" arrivalPos="107.54" duration="254.00" routeLength="3531.89" timeLoss="36.13"/>
    </personinfo>
    <personinfo id="410462101.22.50" depart="50.00" type="DEFAULT_PEDTYPE">
        <walk depart="50.00" departPos="11.46" arrival="51.00" arrivalPos="12.46" duration="1.00" routeLength="1.00" timeLoss="0.28" maxSpeed="1.39"/>
        <ride waitingTime="209.00" vehicle="bus_22:0.0" depart="260.00" arrival="688.00" arrivalPos="141.91" duration="428.00" routeLength="5692.57" timeLoss="64.78"/>
    </personinfo>
    <personinfo id="410486991.43.391" depart="391.00" type="DEFAULT_PEDTYPE">
        <walk depart="391.00" departPos="194.33" arrival="392.00" arrivalPos="195.33" duration="1.00" routeLength="1.00" timeLoss="0.28" maxSpeed="1.39"/>
        <ride waitingTime="33.00" vehicle="bus_43:0.0" depart="425.00" arrival="743.00" arrivalPos="19.17" duration="318.00" routeLength="3994.71" timeLoss="68.88"/>
    </personinfo>
    <personinfo id="4430976208.43.420" depart="420.00" type="DEFAULT_PEDTYPE">
        <walk depart="420.00" departPos="18.61" arrival="421.00" arrivalPos="19.61" duration="1.00" routeLength="1.00" timeLoss="0.28" maxSpeed="1.39"/>
        <ride waitingTime="69.00" vehicle="bus_43:0.0" depart="490.00" arrival="787.00" arrivalPos="164.79" duration="297.00" routeLength="3702.63" timeLoss="65.40"/>
    </personinfo>
    <personinfo id="410464248.22.710" depart="710.00" type="DEFAULT_PEDTYPE">
        <walk depart="710.00" departPos="23.64" arrival="711.00" arrivalPos="24.64" duration="1.00" routeLength="1.00" timeLoss="0.28" maxSpeed="1.39"/>
        <ride waitingTime="29.00" vehicle="bus_22:0.0" depart="740.00" arrival="842.00" arrivalPos="11.72" duration="102.00" routeLength="1188.88" timeLoss="25.83"/>
    </personinfo>
    <personinfo id="1855320978.43.300" depart="300.00" type="DEFAULT_PEDTYPE">
        <walk depart="300.00" departPos="29.59" arrival="301.00" arrivalPos="30.59" duration="1.00" routeLength="1.00" timeLoss="0.28" maxSpeed="1.39"/>
        <ride waitingTime="258.00" vehicle="bus_43:0.0" depart="559.00" arrival="876.00" arrivalPos="263.31" duration="317.00" routeLength="4010.97" timeLoss="65.47"/>
    </personinfo>
    <personinfo id="410480716.22.413" depart="413.00" type="DEFAULT_PEDTYPE">
        <walk depart="413.00" departPos="9.98" arrival="414.00" arrivalPos="10.98" duration="1.00" routeLength="1.00" timeLoss="0.28" maxSpeed="1.39"/>
        <ride waitingTime="204.00" vehicle="bus_22:0.0" depart="618.00" arrival="881.00" arrivalPos="12.28" duration="263.00" routeLength="2890.58" timeLoss="79.05"/>
    </personinfo>
    <personinfo id="410480724.22.274" depart="274.00" type="DEFAULT_PEDTYPE">
        <walk depart="274.00" departPos="26.17" arrival="275.00" arrivalPos="27.17" duration="1.00" routeLength="1.00" timeLoss="0.28" maxSpeed="1.39"/>
        <ride waitingTime="434.00" vehicle="bus_22:0.0" depart="709.00" arrival="882.00" arrivalPos="12.28" duration="173.00" routeLength="1878.38" timeLoss="50.76"/>
    </personinfo>
    <personinfo id="410464248.22.2" depart="2.00" type="DEFAULT_PEDTYPE">
        <walk depart="2.00" departPos="23.64" arrival="3.00" arrivalPos="24.64" duration="1.00" routeLength="1.00" timeLoss="0.28" maxSpeed="1.39"/>
        <ride waitingTime="737.00" vehicle="bus_22:0.0" depart="740.00" arrival="882.00" arrivalPos="12.28" duration="142.00" routeLength="1601.42" timeLoss="37.93"/>
    </personinfo>
    <personinfo id="410465917.22.335" depart="335.00" type="DEFAULT_PEDTYPE">
        <walk depart="335.00" departPos="21.70" arrival="336.00" arrivalPos="22.70" duration="1.00" routeLength="1.00" timeLoss="0.28" maxSpeed="1.39"/>
        <ride waitingTime="466.00" vehicle="bus_22:0.0" depart="802.00" arrival="883.00" arrivalPos="12.28" duration="81.00" routeLength="871.77" timeLoss="24.56"/>
    </personinfo>
    <personinfo id="410465915.22.394" depart="394.00" type="DEFAULT_PEDTYPE">
        <walk depart="394.00" departPos="130.08" arrival="497.00" arrivalPos="0.00" duration="103.00" routeLength="130.08" timeLoss="9.34" maxSpeed="1.39"/>
        <ride waitingTime="347.00" vehicle="bus_22:0.0" depart="844.00" arrival="883.00" arrivalPos="12.28" duration="39.00" routeLength="412.55" timeLoss="12.10"/>
    </personinfo>
    <personinfo id="4430976208.43.461" depart="461.00" type="DEFAULT_PEDTYPE">
        <walk depart="461.00" departPos="18.61" arrival="462.00" arrivalPos="19.61" duration="1.00" routeLength="1.00" timeLoss="0.28" maxSpeed="1.39"/>
        <ride waitingTime="28.00" vehicle="bus_43:0.0" depart="490.00" arrival="907.00" arrivalPos="12.08" duration="417.00" routeLength="4929.57" timeLoss="97.96"/>
    </personinfo>
    <personinfo id="410462211.43.254" depart="254.00" type="DEFAULT_PEDTYPE">
        <walk depart="254.00" departPos="18.63" arrival="255.00" arrivalPos="19.63" duration="1.00" routeLength="1.00" timeLoss="0.28" maxSpeed="1.39"/>
        <ride waitingTime="96.00" vehicle="bus_43:0.0" depart="351.00" arrival="942.00" arrivalPos="34.17" duration="591.00" routeLength="7048.17" timeLoss="137.48"/>
    </personinfo>
    <personinfo id="410462266.43.823" depart="823.00" type="DEFAULT_PEDTYPE">
        <walk depart="823.00" departPos="50.19" arrival="824.00" arrivalPos="51.19" duration="1.00" routeLength="1.00" timeLoss="0.28" maxSpeed="1.39"/>
        <ride waitingTime="92.00" vehicle="bus_43:0.1" depart="916.00" arrival="957.00" arrivalPos="34.63" duration="41.00" routeLength="486.64" timeLoss="11.81"/>
    </personinfo>
    <personinfo id="410462103.22.790" depart="790.00" type="DEFAULT_PEDTYPE">
        <walk depart="790.00" departPos="11.46" arrival="791.00" arrivalPos="12.46" duration="1.00" routeLength="1.00" timeLoss="0.28" maxSpeed="1.39"/>
        <ride waitingTime="71.00" vehicle="bus_22:0.1" depart="862.00" arrival="966.00" arrivalPos="181.36" duration="104.00" routeLength="1297.49" timeLoss="25.84"/>
    </personinfo>
    <personinfo id="410480724.22.371" depart="371.00" type="DEFAULT_PEDTYPE">
        <walk depart="371.00" departPos="26.17" arrival="372.00" arrivalPos="27.17" duration="1.00" routeLength="1.00" timeLoss="0.28" maxSpeed="1.39"/>
        <ride waitingTime="337.00" vehicle="bus_22:0.0" depart="709.00" arrival="1036.00" arrivalPos="272.83" duration="327.00" routeLength="3193.40" timeLoss="73.36"/>
    </personinfo>
    <personinfo id="410465915.22.105" depart="105.00" type="DEFAULT_PEDTYPE">
        <walk depart="105.00" departPos="130.08" arrival="210.00" arrivalPos="0.00" duration="105.00" routeLength="130.08" timeLoss="11.34" maxSpeed="1.39"/>
        <ride waitingTime="634.00" vehicle="bus_22:0.0" depart="844.00" arrival="1036.00" arrivalPos="272.83" duration="192.00" routeLength="1727.58" timeLoss="34.70"/>
    </personinfo>
    <personinfo id="410462762.22.74" depart="74.00" type="DEFAULT_PEDTYPE">
        <walk depart="74.00" departPos="639.18" arrival="585.00" arrivalPos="0.00" duration="511.00" routeLength="639.18" timeLoss="50.79" maxSpeed="1.39"/>
        <ride waitingTime="300.00" vehicle="bus_22:0.0" depart="885.00" arrival="1036.00" arrivalPos="272.83" duration="151.00" routeLength="1315.04" timeLoss="22.60"/>
    </personinfo>
    <personinfo id="410462762.22.229" depart="229.00" type="DEFAULT_PEDTYPE">
        <walk depart="229.00" departPos="639.18" arrival="739.00" arrivalPos="0.00" duration="510.00" routeLength="639.18" timeLoss="49.79" maxSpeed="1.39"/>
        <ride waitingTime="146.00" vehicle="bus_22:0.0" depart="885.00" arrival="1037.00" arrivalPos="272.83" duration="152.00" routeLength="1315.04" timeLoss="22.60"/>
    </personinfo>
    <personinfo id="410466111.22.834" depart="834.00" type="DEFAULT_PEDTYPE">
        <walk depart="834.00" departPos="69.51" arrival="835.00" arrivalPos="70.51" duration="1.00" routeLength="1.00" timeLoss="0.28" maxSpeed="1.39"/>
        <ride waitingTime="115.00" vehicle="bus_22:0.0" depart="950.00" arrival="1037.00" arrivalPos="272.83" duration="87.00" routeLength="601.64" timeLoss="11.59"/>
    </personinfo>
    <personinfo id="410466111.22.943" depart="943.00" type="DEFAULT_PEDTYPE">
        <walk depart="943.00" departPos="69.51" arrival="946.00" arrivalPos="70.51" duration="3.00" routeLength="1.00" timeLoss="2.28" maxSpeed="1.39"/>
        <ride waitingTime="4.00" vehicle="bus_22:0.0" depart="950.00" arrival="1038.00" arrivalPos="272.83" duration="88.00" routeLength="601.64" timeLoss="11.59"/>
    </personinfo>
    <tripinfo id="bus_22:0.0" depart="0.00" departLane="543768663_0" departPos="7.80" departSpeed="0.00" departDelay="0.00" arrival="1069.00" arrivalLane="245934570#2_0" arrivalPos="422.97" arrivalSpeed="5.20" duration="1069.00" routeLength="12633.03" waitingTime="3.00" waitingCount="3" stopTime="17.00" timeLoss="179.80" rerouteNo="0" devices="tripinfo_bus_22:0.0 person_bus_22:0.0" vType="bus" speedFactor="1.00" vaporized=""/>
    <personinfo id="410462103.22.447" depart="447.00" type="DEFAULT_PEDTYPE">
        <walk depart="447.00" departPos="11.46" arrival="448.00" arrivalPos="12.46" duration="1.00" routeLength="1.00" timeLoss="0.28" maxSpeed="1.39"/>
        <ride waitingTime="414.00" vehicle="bus_22:0.1" depart="862.00" arrival="1118.00" arrivalPos="103.66" duration="256.00" routeLength="3275.71" timeLoss="54.60"/>
    </personinfo>
    <personinfo id="410486969.43.1118" depart="1118.00" type="DEFAULT_PEDTYPE">
        <walk depart="1118.00" departPos="0.12" arrival="1119.00" arrivalPos="1.12" duration="1.00" routeLength="1.00" timeLoss="0.28" maxSpeed="1.39"/>
        <ride waitingTime="16.00" vehicle="bus_43:0.1" depart="1135.00" arrival="1260.00" arrivalPos="100.98" duration="125.00" routeLength="1439.72" timeLoss="32.56"/>
    </personinfo>
    <personinfo id="410462293.43.304" depart="304.00" type="DEFAULT_PEDTYPE">
        <walk depart="304.00" departPos="10.48" arrival="305.00" arrivalPos="11.48" duration="1.00" routeLength="1.00" timeLoss="0.28" maxSpeed="1.39"/>
        <ride waitingTime="9.00" vehicle="bus_43:0.0" depart="314.00" arrival="1293.00" arrivalPos="81.85" duration="979.00" routeLength="11976.30" timeLoss="190.79"/>
    </personinfo>
    <personinfo id="410478271.43.529" depart="529.00" type="DEFAULT_PEDTYPE">
        <walk depart="529.00" departPos="126.46" arrival="630.00" arrivalPos="0.00" duration="101.00" routeLength="126.46" timeLoss="9.95" maxSpeed="1.39"/>
        <ride waitingTime="526.00" vehicle="bus_43:0.0" depart="1156.00" arrival="1293.00" arrivalPos="81.85" duration="137.00" routeLength="1791.70" timeLoss="14.39"/>
    </personinfo>
    <personinfo id="410482568.22.845" depart="845.00" type="DEFAULT_PEDTYPE">
        <walk depart="845.00" departPos="3.17" arrival="846.00" arrivalPos="4.17" duration="1.00" routeLength="1.00" timeLoss="0.28" maxSpeed="1.39"/>
        <ride waitingTime="192.00" vehicle="bus_22:0.1" depart="1038.00" arrival="1311.00" arrivalPos="42.14" duration="273.00" routeLength="3561.92" timeLoss="38.94"/>
    </personinfo>
    <personinfo id="410486991.43.105" depart="105.00" type="DEFAULT_PEDTYPE">
        <walk depart="105.00" departPos="194.33" arrival="106.00" arrivalPos="195.33" duration="1.00" routeLength="1.00" timeLoss="0.28" maxSpeed="1.39"/>
        <ride waitingTime="319.00" vehicle="bus_43:0.0" depart="425.00" arrival="1319.00" arrivalPos="12.85" duration="894.00" routeLength="10810.20" timeLoss="177.07"/>
    </personinfo>
    <personinfo id="4430976208.43.834" depart="834.00" type="DEFAULT_PEDTYPE">
        <walk depart="834.00" departPos="18.61" arrival="835.00" arrivalPos="19.61" duration="1.00" routeLength="1.00" timeLoss="0.28" maxSpeed="1.39"/>
        <ride waitingTime="273.00" vehicle="bus_43:0.1" depart="1108.00" arrival="1358.00" arrivalPos="36.75" duration="250.00" routeLength="3009.05" timeLoss="58.93"/>
    </personinfo>
    <personinfo id="410480724.22.1256" depart="1256.00" type="DEFAULT_PEDTYPE">
        <walk depart="1256.00" departPos="26.17" arrival="1257.00" arrivalPos="27.17" duration="1.00" routeLength="1.00" timeLoss="0.28" maxSpeed="1.39"/>
        <ride waitingTime="55.00" vehicle="bus_22:0.1" depart="1312.00" arrival="1368.00" arrivalPos="44.37" duration="56.00" routeLength="647.16" timeLoss="12.66"/>
    </personinfo>
    <personinfo id="410460005.22.493" depart="493.00" type="DEFAULT_PEDTYPE">
        <walk depart="493.00" departPos="270.27" arrival="715.00" arrivalPos="0.00" duration="222.00" routeLength="270.27" timeLoss="27.41" maxSpeed="1.39"/>
        <ride waitingTime="487.00" vehicle="bus_22:0.2" depart="1202.00" arrival="1369.00" arrivalPos="53.70" duration="167.00" routeLength="1499.30" timeLoss="37.02"/>
    </personinfo>
    <personinfo id="410474760.43.881" depart="881.00" type="DEFAULT_PEDTYPE">
        <walk depart="881.00" departPos="38.27" arrival="882.00" arrivalPos="39.27" duration="1.00" routeLength="1.00" timeLoss="0.28" maxSpeed="1.39"/>
        <ride waitingTime="485.00" vehicle="bus_43:0.2" depart="1367.00" arrival="1391.00" arrivalPos="41.56" duration="24.00" routeLength="192.00" timeLoss="12.49"/>
    </personinfo>
    <personinfo id="410482564.22.938" depart="938.00" type="DEFAULT_PEDTYPE">
        <walk depart="938.00" departPos="87.68" arrival="939.00" arrivalPos="88.68" duration="1.00" routeLength="1.00" timeLoss="0.28" maxSpeed="1.39"/>
        <ride waitingTime="180.00" vehicle="bus_22:0.1" depart="1119.00" arrival="1402.00" arrivalPos="37.69" duration="283.00" routeLength="3534.96" timeLoss="47.60"/>
    </personinfo>
    <personinfo id="410462266.43.739" depart="739.00" type="DEFAULT_PEDTYPE">
        <walk depart="739.00" departPos="50.19" arrival="740.00" arrivalPos="51.19" duration="1.00" routeLength="1.00" timeLoss="0.28" maxSpeed="1.39"/>
        <ride waitingTime="176.00" vehicle="bus_43:0.1" depart="916.00" arrival="1417.00" arrivalPos="164.76" duration="501.00" routeLength="5968.65" timeLoss="126.07"/>
    </personinfo>
    <personinfo id="410486991.43.820" depart="820.00" type="DEFAULT_PEDTYPE">
        <walk depart="820.00" departPos="194.33" arrival="821.00" arrivalPos="195.33" duration="1.00" routeLength="1.00" timeLoss="0.28" maxSpeed="1.39"/>
        <ride waitingTime="224.00" vehicle="bus_43:0.1" depart="1045.00" arrival="1465.00" arrivalPos="103.68" duration="420.00" routeLength="5028.26" timeLoss="101.29"/>
    </personinfo>
    <personinfo id="410459904.22.1074" depart="1074.00" type="DEFAULT_PEDTYPE">
        <walk depart="1074.00" departPos="19.22" arrival="1075.00" arrivalPos="20.22" duration="1.00" routeLength="1.00" timeLoss="0.28" maxSpeed="1.39"/>
        <ride waitingTime="258.00" vehicle="bus_22:0.2" depart="1333.00" arrival="1466.00" arrivalPos="23.99" duration="133.00" routeLength="1901.67" timeLoss="30.90"/>
    </personinfo>
    <personinfo id="410459904.22.1135" depart="1135.00" type="DEFAULT_PEDTYPE">
        <walk depart="1135.00" departPos="19.22" arrival="1136.00" arrivalPos="20.22" duration="1.00" routeLength="1.00" timeLoss="0.28" maxSpeed="1.39"/>
        <ride waitingTime="197.00" vehicle="bus_22:0.2" depart="1333.00" arrival="1466.00" arrivalPos="23.99" duration="133.00" routeLength="1901.64" timeLoss="30.90"/>
    </personinfo>
    <personinfo id="410462103.22.469" depart="469.00" type="DEFAULT_PEDTYPE">
        <walk depart="469.00" departPos="11.46" arrival="470.00" arrivalPos="12.46" duration="1.00" routeLength="1.00" timeLoss="0.28" maxSpeed="1.39"/>
        <ride waitingTime="392.00" vehicle="bus_22:0.1" depart="862.00" arrival="1483.00" arrivalPos="12.27" duration="621.00" routeLength="7682.38" timeLoss="128.74"/>
    </personinfo>
    <personinfo id="410465915.22.1312" depart="1312.00" type="DEFAULT_PEDTYPE">
        <walk depart="1312.00" departPos="130.08" arrival="1418.00" arrivalPos="0.00" duration="106.00" routeLength="130.08" timeLoss="12.34" maxSpeed="1.39"/>
        <ride waitingTime="26.00" vehicle="bus_22:0.1" depart="1444.00" arrival="1483.00" arrivalPos="12.27" duration="39.00" routeLength="412.61" timeLoss="14.08"/>
    </personinfo>
    <personinfo id="410459904.22.1020" depart="1020.00" type="DEFAULT_PEDTYPE">
        <walk depart="1020.00" departPos="19.22" arrival="1021.00" arrivalPos="20.22" duration="1.00" routeLength="1.00" timeLoss="0.28" maxSpeed="1.39"/>
        <ride waitingTime="312.00" vehicle="bus_22:0.2" depart="1333.00" arrival="1508.00" arrivalPos="27.44" duration="175.00" routeLength="2381.96" timeLoss="42.09"/>
    </personinfo>
    <personinfo id="4430976208.43.955" depart="955.00" type="DEFAULT_PEDTYPE">
        <walk depart="955.00" departPos="18.61" arrival="956.00" arrivalPos="19.61" duration="1.00" routeLength="1.00" timeLoss="0.28" maxSpeed="1.39"/>
        <ride waitingTime="152.00" vehicle="bus_43:0.1" depart="1108.00" arrival="1517.00" arrivalPos="263.29" duration="409.00" routeLength="4645.78" timeLoss="108.29"/>
    </personinfo>
    <personinfo id="410486969.43.441" depart="441.00" type="DEFAULT_PEDTYPE">
        <walk depart="441.00" departPos="0.12" arrival="442.00" arrivalPos="1.12" duration="1.00" routeLength="1.00" timeLoss="0.28" maxSpeed="1.39"/>
        <ride waitingTime="77.00" vehicle="bus_43:0.0" depart="519.00" arrival="1527.00" arrivalPos="32.34" duration="1008.00" routeLength="12723.27" timeLoss="177.82"/>
    </personinfo>
    <personinfo id="410482564.43.546" depart="546.00" type="DEFAULT_PEDTYPE">
        <walk depart="546.00" departPos="87.68" arrival="547.00" arrivalPos="88.68" duration="1.00" routeLength="1.00" timeLoss="0.28" maxSpeed="1.39"/>
        <ride waitingTime="290.00" vehicle="bus_43:0.0" depart="837.00" arrival="1527.00" arrivalPos="32.34" duration="690.00" routeLength="8723.59" timeLoss="110.81"/>
    </personinfo>
    <personinfo id="410478271.43.25" depart="25.00" type="DEFAULT_PEDTYPE">
        <walk depart="25.00" departPos="126.46" arrival="127.00" arrivalPos="0.00" duration="102.00" routeLength="126.46" timeLoss="10.95" maxSpeed="1.39"/>
        <ride waitingTime="1029.00" vehicle="bus_43:0.0" depart="1156.00" arrival="1527.00" arrivalPos="32.34" duration="371.00" routeLength="4945.69" timeLoss="55.79"/>
    </personinfo>
    <personinfo id="410467564.43.439" depart="439.00" type="DEFAULT_PEDTYPE">
        <walk depart="439.00" departPos="53.90" arrival="440.00" arrivalPos="54.90" duration="1.00" routeLength="1.00" timeLoss="0.28" maxSpeed="1.39"/>
        <ride waitingTime="917.00" vehicle="bus_43:0.0" depart="1357.00" arrival="1528.00" arrivalPos="32.34" duration="171.00" routeLength="2517.58" timeLoss="18.57"/>
    </personinfo>
    <personinfo id="410462103.22.537" depart="537.00" type="DEFAULT_PEDTYPE">
        <walk depart="537.00" departPos="11.46" arrival="538.00" arrivalPos="12.46" duration="1.00" routeLength="1.00" timeLoss="0.28" maxSpeed="1.39"/>
        <ride waitingTime="324.00" vehicle="bus_22:0.1" depart="862.00" arrival="1547.00" arrivalPos="85.51" duration="685.00" routeLength="8395.79" timeLoss="138.85"/>
    </personinfo>
    <personinfo id="410474348.43.1319" depart="1319.00" type="DEFAULT_PEDTYPE">
        <walk depart="1319.00" departPos="25.59" arrival="1320.00" arrivalPos="26.59" duration="1.00" routeLength="1.00" timeLoss="0.28" maxSpeed="1.39"/>
        <ride waitingTime="72.00" vehicle="bus_43:0.2" depart="1392.00" arrival="1568.00" arrivalPos="26.48" duration="176.00" routeLength="2134.25" timeLoss="31.67"/>
    </personinfo>
    <personinfo id="1855320978.43.855" depart="855.00" type="DEFAULT_PEDTYPE">
        <walk depart="855.00" departPos="29.59" arrival="856.00" arrivalPos="30.59" duration="1.00" routeLength="1.00" timeLoss="0.28" maxSpeed="1.39"/>
        <ride waitingTime="320.00" vehicle="bus_43:0.1" depart="1176.00" arrival="1635.00" arrivalPos="93.53" duration="459.00" routeLength="5485.00" timeLoss="104.16"/>
    </personinfo>
    <personinfo id="410465917.22.1253" depart="1253.00" type="DEFAULT_PEDTYPE">
        <walk depart="1253.00" departPos="21.70" arrival="1254.00" arrivalPos="22.70" duration="1.00" routeLength="1.00" timeLoss="0.28" maxSpeed="1.39"/>
        <ride waitingTime="149.00" vehicle="bus_22:0.1" depart="1403.00" arrival="1635.00" arrivalPos="272.82" duration="232.00" routeLength="2186.79" timeLoss="49.41"/>
    </personinfo>
    <personinfo id="410459897.22.943" depart="943.00" type="DEFAULT_PEDTYPE">
        <walk depart="943.00" departPos="23.17" arrival="944.00" arrivalPos="24.17" duration="1.00" routeLength="1.00" timeLoss="0.28" maxSpeed="1.39"/>
        <ride waitingTime="371.00" vehicle="bus_22:0.2" depart="1315.00" arrival="1645.00" arrivalPos="18.85" duration="330.00" routeLength="3980.33" timeLoss="94.79"/>
    </personinfo>
    <personinfo id="410459904.22.1078" depart="1078.00" type="DEFAULT_PEDTYPE">
        <walk depart="1078.00" departPos="19.22" arrival="1079.00" arrivalPos="20.22" duration="1.00" routeLength="1.00" timeLoss="0.28" maxSpeed="1.39"/>
        <ride waitingTime="254.00" vehicle="bus_22:0.2" depart="1333.00" arrival="1645.00" arrivalPos="18.85" duration="312.00" routeLength="3896.64" timeLoss="84.80"/>
    </personinfo>
    <tripinfo id="bus_22:0.1" depart="600.00" departLane="543768663_0" departPos="7.80" departSpeed="0.00" departDelay="0.00" arrival="1666.00" arrivalLane="245934570#2_0" arrivalPos="422.97" arrivalSpeed="5.32" duration="1066.00" routeLength="12633.03" waitingTime="1.00" waitingCount="1" stopTime="12.00" timeLoss="181.25" rerouteNo="0" devices="tripinfo_bus_22:0.1 person_bus_22:0.1" vType="bus" speedFactor="1.00" vaporized=""/>
    <personinfo id="410478271.43.480" depart="480.00" type="DEFAULT_PEDTYPE">
        <walk depart="480.00" departPos="126.46" arrival="582.00" arrivalPos="0.00" duration="102.00" routeLength="126.46" timeLoss="10.95" maxSpeed="1.39"/>
        <ride waitingTime="574.00" vehicle="bus_43:0.0" depart="1156.00" arrival="1684.00" arrivalPos="26.07" duration="528.00" routeLength="6899.78" timeLoss="69.11"/>
    </personinfo>
    <personinfo id="410467153.22.1300" depart="1300.00" type="DEFAULT_PEDTYPE">
        <walk depart="1300.00" departPos="8.01" arrival="1301.00" arrivalPos="9.01" duration="1.00" routeLength="1.00" timeLoss="0.28" maxSpeed="1.39"/>
        <ride waitingTime="167.00" vehicle="bus_22:0.2" depart="1468.00" arrival="1690.00" arrivalPos="36.76" duration="222.00" routeLength="2531.22" timeLoss="65.74"/>
    </personinfo>
    <personinfo id="4430976208.43.1010" depart="1010.00" type="DEFAULT_PEDTYPE">
        <walk depart="1010.00" departPos="18.61" arrival="1011.00" arrivalPos="19.61" duration="1.00" routeLength="1.00" timeLoss="0.28" maxSpeed="1.39"/>
        <ride waitingTime="97.00" vehicle="bus_43:0.1" depart="1108.00" arrival="1708.00" arrivalPos="45.48" duration="600.00" routeLength="6864.92" timeLoss="149.56"/>
    </personinfo>
    <personinfo id="1855320978.43.1159" depart="1159.00" type="DEFAULT_PEDTYPE">
        <walk depart="1159.00" departPos="29.59" arrival="1160.00" arrivalPos="30.59" duration="1.00" routeLength="1.00" timeLoss="0.28" maxSpeed="1.39"/>
        <ride waitingTime="16.00" vehicle="bus_43:0.1" depart="1176.00" arrival="1708.00" arrivalPos="45.48" duration="532.00" routeLength="6230.06" timeLoss="128.72"/>
    </personinfo>
    <personinfo id="1849631273.43.231" depart="231.00" type="DEFAULT_PEDTYPE">
        <walk depart="231.00" departPos="405.52" arrival="558.00" arrivalPos="0.00" duration="327.00" routeLength="405.52" timeLoss="35.03" maxSpeed="1.39"/>
        <ride waitingTime="309.00" vehicle="bus_43:0.1" depart="867.00" arrival="1745.00" arrivalPos="26.13" duration="878.00" routeLength="10037.72" timeLoss="223.10"/>
    </personinfo>
    <tripinfo id="bus_43:0.0" depart="0.00" departLane="1111008091_0" departPos="12.10" departSpeed="0.00" departDelay="0.00" arrival="1746.00" arrivalLane="528461109_0" arrivalPos="176.67" arrivalSpeed="5.23" duration="1746.00" routeLength="21752.29" waitingTime="2.00" waitingCount="2" stopTime="21.00" timeLoss="290.57" rerouteNo="0" devices="tripinfo_bus_43:0.0 person_bus_43:0.0" vType="bus" speedFactor="1.00" vaporized=""/>
    <personinfo id="410462211.43.1416" depart="1416.00" type="DEFAULT_PEDTYPE">
        <walk depart="1416.00" departPos="18.63" arrival="1417.00" arrivalPos="19.63" duration="1.00" routeLength="1.00" timeLoss="0.28" maxSpeed="1.39"/>
        <ride waitingTime="188.00" vehicle="bus_43:0.2" depart="1605.00" arrival="1806.00" arrivalPos="45.57" duration="201.00" routeLength="2414.34" timeLoss="46.84"/>
    </personinfo>
    <personinfo id="1531005322.22.1408" depart="1408.00" type="DEFAULT_PEDTYPE">
        <walk depart="1408.00" departPos="12.13" arrival="1409.00" arrivalPos="13.13" duration="1.00" routeLength="1.00" timeLoss="0.28" maxSpeed="1.39"/>
        <ride waitingTime="193.00" vehicle="bus_22:0.2" depart="1602.00" arrival="1865.00" arrivalPos="34.18" duration="263.00" routeLength="3291.07" timeLoss="48.20"/>
    </personinfo>
    <personinfo id="410462211.43.741" depart="741.00" type="DEFAULT_PEDTYPE">
        <walk depart="741.00" departPos="18.63" arrival="742.00" arrivalPos="19.63" duration="1.00" routeLength="1.00" timeLoss="0.28" maxSpeed="1.39"/>
        <ride waitingTime="216.00" vehicle="bus_43:0.1" depart="958.00" arrival="1876.00" arrivalPos="13.93" duration="918.00" routeLength="10496.31" timeLoss="217.25"/>
    </personinfo>
    <personinfo id="1847853709.43.680" depart="680.00" type="DEFAULT_PEDTYPE">
        <walk depart="680.00" departPos="41.23" arrival="681.00" arrivalPos="42.23" duration="1.00" routeLength="1.00" timeLoss="0.28" maxSpeed="1.39"/>
        <ride waitingTime="547.00" vehicle="bus_43:0.2" depart="1228.00" arrival="1893.00" arrivalPos="100.98" duration="665.00" routeLength="7978.41" timeLoss="153.43"/>
    </personinfo>
    <personinfo id="410464255.43.1036" depart="1036.00" type="DEFAULT_PEDTYPE">
        <walk depart="1036.00" departPos="195.84" arrival="1193.00" arrivalPos="0.00" duration="157.00" routeLength="195.84" timeLoss="16.00" maxSpeed="1.39"/>
        <ride waitingTime="468.00" vehicle="bus_43:0.1" depart="1661.00" arrival="1936.00" arrivalPos="64.55" duration="275.00" routeLength="3141.58" timeLoss="51.99"/>
    </personinfo>
    <personinfo id="1847853709.43.1438" depart="1438.00" type="DEFAULT_PEDTYPE">
        <walk depart="1438.00" departPos="41.23" arrival="1439.00" arrivalPos="42.23" duration="1.00" routeLength="1.00" timeLoss="0.28" maxSpeed="1.39"/>
        <ride waitingTime="388.00" vehicle="bus_43:0.3" depart="1827.00" arrival="1966.00" arrivalPos="47.21" duration="139.00" routeLength="1805.60" timeLoss="29.37"/>
    </personinfo>
    <personinfo id="1849631331.43.1243" depart="1243.00" type="DEFAULT_PEDTYPE">
        <walk depart="1243.00" departPos="42.45" arrival="1244.00" arrivalPos="43.45" duration="1.00" routeLength="1.00" timeLoss="0.28" maxSpeed="1.39"/>
        <ride waitingTime="38.00" vehicle="bus_43:0.2" depart="1282.00" arrival="1970.00" arrivalPos="18.85" duration="688.00" routeLength="8123.81" timeLoss="166.77"/>
    </personinfo>
    <personinfo id="410471030.22.1861" depart="1861.00" type="DEFAULT_PEDTYPE">
        <walk depart="1861.00" departPos="18.18" arrival="1862.00" arrivalPos="19.18" duration="1.00" routeLength="1.00" timeLoss="0.28" maxSpeed="1.39"/>
        <ride waitingTime="4.00" vehicle="bus_22:0.2" depart="1866.00" arrival="1975.00" arrivalPos="42.17" duration="109.00" routeLength="1493.49" timeLoss="15.04"/>
    </personinfo>
    <personinfo id="410482570.43.1058" depart="1058.00" type="DEFAULT_PEDTYPE">
        <walk depart="1058.00" departPos="91.56" arrival="1059.00" arrivalPos="92.56" duration="1.00" routeLength="1.00" timeLoss="0.28" maxSpeed="1.39"/>
        <ride waitingTime="437.00" vehicle="bus_43:0.1" depart="1496.00" arrival="1983.00" arrivalPos="12.88" duration="487.00" routeLength="5525.86" timeLoss="103.23"/>
    </personinfo>
    <personinfo id="410462103.22.1056" depart="1056.00" type="DEFAULT_PEDTYPE">
        <walk depart="1056.00" departPos="11.46" arrival="1057.00" arrivalPos="12.46" duration="1.00" routeLength="1.00" timeLoss="0.28" maxSpeed="1.39"/>
        <ride waitingTime="452.00" vehicle="bus_22:0.2" depart="1509.00" arrival="2004.00" arrivalPos="39.64" duration="495.00" routeLength="6081.12" timeLoss="104.00"/>
    </personinfo>
    <personinfo id="410459904.22.1486" depart="1486.00" type="DEFAULT_PEDTYPE">
        <walk depart="1486.00" departPos="19.22" arrival="1487.00" arrivalPos="20.22" duration="1.00" routeLength="1.00" timeLoss="0.28" maxSpeed="1.39"/>
        <ride waitingTime="435.00" vehicle="bus_22:0.3" depart="1922.00" arrival="2045.00" arrivalPos="24.00" duration="123.00" routeLength="1901.71" timeLoss="21.92"/>
    </personinfo>
    <personinfo id="1849631331.43.1099" depart="1099.00" type="DEFAULT_PEDTYPE">