<?xml version="1.0" encoding="UTF-8"?>

<!-- generated on 2024-03-21 23:44:39 by Eclipse SUMO GUI Version 1.14.1
<configuration xmlns:xsi="http://www.w3.org/2001/XMLSchema-instance" xsi:noNamespaceSchemaLocation="http://sumo.dlr.de/xsd/sumoConfiguration.xsd">

    <input>
        <net-file value="singapore/singapore.net.xml"/>
        <route-files value="singapore/busFlows.rou.xml"/>
        <additional-files value="singapore/busstops.xml"/>
    </input>

    <output>
        <tripinfo-output value="tripinfo.xml"/>
    </output>

    <processing>
        <no-internal-links value="true"/>
    </processing>

    <traci_server>
        <remote-port value="61514"/>
    </traci_server>

</configuration>
-->

<tripinfos xmlns:xsi="http://www.w3.org/2001/XMLSchema-instance" xsi:noNamespaceSchemaLocation="http://sumo.dlr.de/xsd/tripinfo_file.xsd">
    <personinfo id="410459904.22.50" depart="50.00" type="DEFAULT_PEDTYPE">
        <walk depart="50.00" departPos="19.22" arrival="51.00" arrivalPos="20.22" duration="1.00" routeLength="1.00" timeLoss="0.28" maxSpeed="1.39"/>
        <ride waitingTime="82.00" vehicle="bus_22:0.0" depart="133.00" arrival="288.00" arrivalPos="27.44" duration="155.00" routeLength="2486.33" timeLoss="19.02"/>
    </personinfo>
    <personinfo id="410482520.22.257" depart="257.00" type="DEFAULT_PEDTYPE">
        <walk depart="257.00" departPos="2.85" arrival="258.00" arrivalPos="3.85" duration="1.00" routeLength="1.00" timeLoss="0.28" maxSpeed="1.39"/>
        <ride waitingTime="147.00" vehicle="bus_22:0.0" depart="405.00" arrival="452.00" arrivalPos="36.71" duration="47.00" routeLength="560.37" timeLoss="13.39"/>
    </personinfo>
    <personinfo id="410462266.43.140" depart="140.00" type="DEFAULT_PEDTYPE">
        <walk depart="140.00" departPos="50.19" arrival="141.00" arrivalPos="51.19" duration="1.00" routeLength="1.00" timeLoss="0.28" maxSpeed="1.39"/>
        <ride waitingTime="195.00" vehicle="bus_43:0.0" depart="336.00" arrival="695.00" arrivalPos="44.59" duration="359.00" routeLength="4594.04" timeLoss="72.43"/>
    </personinfo>
    <personinfo id="410465917.22.301" depart="301.00" type="DEFAULT_PEDTYPE">
        <walk depart="301.00" departPos="21.70" arrival="302.00" arrivalPos="22.70" duration="1.00" routeLength="1.00" timeLoss="0.28" maxSpeed="1.39"/>
        <ride waitingTime="516.00" vehicle="bus_22:0.0" depart="818.00" arrival="859.00" arrivalPos="11.72" duration="41.00" routeLength="475.08" timeLoss="12.50"/>
    </personinfo>
    <personinfo id="410459897.22.165" depart="165.00" type="DEFAULT_PEDTYPE">
        <walk depart="165.00" departPos="23.17" arrival="166.00" arrivalPos="24.17" duration="1.00" routeLength="1.00" timeLoss="0.28" maxSpeed="1.39"/>
        <ride waitingTime="570.00" vehicle="bus_22:0.1" depart="736.00" arrival="898.00" arrivalPos="27.46" duration="162.00" routeLength="2577.93" timeLoss="19.60"/>
    </personinfo>
    <personinfo id="410462293.43.108" depart="108.00" type="DEFAULT_PEDTYPE">
        <walk depart="108.00" departPos="10.48" arrival="109.00" arrivalPos="11.48" duration="1.00" routeLength="1.00" timeLoss="0.28" maxSpeed="1.39"/>
        <ride waitingTime="245.00" vehicle="bus_43:0.0" depart="354.00" arrival="912.00" arrivalPos="263.30" duration="558.00" routeLength="7295.46" timeLoss="99.07"/>
    </personinfo>
    <personinfo id="410465915.22.565" depart="565.00" type="DEFAULT_PEDTYPE">
        <walk depart="565.00" departPos="138.08" arrival="676.00" arrivalPos="0.00" duration="111.00" routeLength="138.08" timeLoss="11.58" maxSpeed="1.39"/>
        <ride waitingTime="185.00" vehicle="bus_22:0.0" depart="861.00" arrival="956.00" arrivalPos="85.50" duration="95.00" routeLength="1184.29" timeLoss="13.43"/>
    </personinfo>
    <personinfo id="1847853709.43.185" depart="185.00" type="DEFAULT_PEDTYPE">
        <walk depart="185.00" departPos="41.23" arrival="186.00" arrivalPos="42.23" duration="1.00" routeLength="1.00" timeLoss="0.28" maxSpeed="1.39"/>
        <ride waitingTime="444.00" vehicle="bus_43:0.1" depart="630.00" arrival="964.00" arrivalPos="66.18" duration="334.00" routeLength="4432.85" timeLoss="49.80"/>
    </personinfo>
    <personinfo id="410482570.43.48" depart="48.00" type="DEFAULT_PEDTYPE">
        <walk depart="48.00" departPos="91.56" arrival="49.00" arrivalPos="92.56" duration="1.00" routeLength="1.00" timeLoss="0.28" maxSpeed="1.39"/>
        <ride waitingTime="843.00" vehicle="bus_43:0.0" depart="892.00" arrival="973.00" arrivalPos="34.18" duration="81.00" routeLength="829.22" timeLoss="20.31"/>
    </personinfo>
    <personinfo id="410465917.22.298" depart="298.00" type="DEFAULT_PEDTYPE">
        <walk depart="298.00" departPos="21.70" arrival="299.00" arrivalPos="22.70" duration="1.00" routeLength="1.00" timeLoss="0.28" maxSpeed="1.39"/>
        <ride waitingTime="519.00" vehicle="bus_22:0.0" depart="818.00" arrival="1050.00" arrivalPos="272.83" duration="232.00" routeLength="2335.41" timeLoss="37.20"/>
    </personinfo>
    <personinfo id="410465915.22.404" depart="404.00" type="DEFAULT_PEDTYPE">
        <walk depart="404.00" departPos="138.08" arrival="515.00" arrivalPos="0.00" duration="111.00" routeLength="138.08" timeLoss="11.58" maxSpeed="1.39"/>
        <ride waitingTime="346.00" vehicle="bus_22:0.0" depart="861.00" arrival="1050.00" arrivalPos="272.83" duration="189.00" routeLength="1860.34" timeLoss="24.70"/>
    </personinfo>
    <personinfo id="410462211.43.370" depart="370.00" type="DEFAULT_PEDTYPE">
        <walk depart="370.00" departPos="18.63" arrival="371.00" arrivalPos="19.63" duration="1.00" routeLength="1.00" timeLoss="0.28" maxSpeed="1.39"/>
        <ride waitingTime="21.00" vehicle="bus_43:0.0" depart="392.00" arrival="1066.00" arrivalPos="9.25" duration="674.00" routeLength="8729.20" timeLoss="115.14"/>
    </personinfo>
    <tripinfo id="bus_22:0.0" depart="0.00" departLane="543768663_0" departPos="7.80" departSpeed="0.00" departDelay="0.00" arrival="1084.00" arrivalLane="245934570#2_0" arrivalPos="434.14" arrivalSpeed="5.48" duration="1084.00" routeLength="13427.11" waitingTime="1.00" waitingCount="1" stopTime="10.00" timeLoss="143.90" rerouteNo="0" devices="tripinfo_bus_22:0.0 person_bus_22:0.0" vType="bus" speedFactor="1.00" vaporized=""/>
    <personinfo id="410462293.43.895" depart="895.00" type="DEFAULT_PEDTYPE">
        <walk depart="895.00" departPos="10.48" arrival="896.00" arrivalPos="11.48" duration="1.00" routeLength="1.00" timeLoss="0.28" maxSpeed="1.39"/>
        <ride waitingTime="89.00" vehicle="bus_43:0.1" depart="985.00" arrival="1100.00" arrivalPos="210.30" duration="115.00" routeLength="1478.46" timeLoss="24.99"/>
    </personinfo>
    <personinfo id="410462291.43.229" depart="229.00" type="DEFAULT_PEDTYPE">
        <walk depart="229.00" departPos="415.85" arrival="561.00" arrivalPos="0.00" duration="332.00" routeLength="415.85" timeLoss="32.59" maxSpeed="1.39"/>
        <ride waitingTime="483.00" vehicle="bus_43:0.1" depart="1044.00" arrival="1142.00" arrivalPos="65.86" duration="98.00" routeLength="1192.34" timeLoss="24.15"/>
    </personinfo>
    <personinfo id="410462103.22.553" depart="553.00" type="DEFAULT_PEDTYPE">
        <walk depart="553.00" departPos="11.46" arrival="554.00" arrivalPos="12.46" duration="1.00" routeLength="1.00" timeLoss="0.28" maxSpeed="1.39"/>
        <ride waitingTime="345.00" vehicle="bus_22:0.1" depart="899.00" arrival="1178.00" arrivalPos="107.55" duration="279.00" routeLength="3750.85" timeLoss="45.73"/>
    </personinfo>
    <personinfo id="410486955.43.157" depart="157.00" type="DEFAULT_PEDTYPE">
        <walk depart="157.00" departPos="49.88" arrival="158.00" arrivalPos="50.88" duration="1.00" routeLength="1.00" timeLoss="0.28" maxSpeed="1.39"/>
        <ride waitingTime="353.00" vehicle="bus_43:0.0" depart="511.00" arrival="1200.00" arrivalPos="24.51" duration="689.00" routeLength="8667.68" timeLoss="122.20"/>
    </personinfo>
    <personinfo id="410459901.22.225" depart="225.00" type="DEFAULT_PEDTYPE">
        <walk depart="225.00" departPos="553.15" arrival="666.00" arrivalPos="0.00" duration="441.00" routeLength="553.15" timeLoss="42.73" maxSpeed="1.39"/>
        <ride waitingTime="21.00" vehicle="bus_22:0.1" depart="687.00" arrival="1252.00" arrivalPos="34.18" duration="565.00" routeLength="7739.87" timeLoss="91.72"/>
    </personinfo>
    <personinfo id="410462103.22.558" depart="558.00" type="DEFAULT_PEDTYPE">
        <walk depart="558.00" departPos="11.46" arrival="559.00" arrivalPos="12.46" duration="1.00" routeLength="1.00" timeLoss="0.28" maxSpeed="1.39"/>
        <ride waitingTime="340.00" vehicle="bus_22:0.1" depart="899.00" arrival="1252.00" arrivalPos="34.18" duration="353.00" routeLength="4580.05" timeLoss="59.03"/>
    </personinfo>
    <personinfo id="1849631269.43.388" depart="388.00" type="DEFAULT_PEDTYPE">
        <walk depart="388.00" departPos="160.44" arrival="517.00" arrivalPos="0.00" duration="129.00" routeLength="160.44" timeLoss="13.48" maxSpeed="1.39"/>
        <ride waitingTime="311.00" vehicle="bus_43:0.1" depart="828.00" arrival="1341.00" arrivalPos="44.58" duration="513.00" routeLength="6198.08" timeLoss="112.81"/>
    </personinfo>
    <personinfo id="410482564.43.243" depart="243.00" type="DEFAULT_PEDTYPE">
        <walk depart="243.00" departPos="87.68" arrival="244.00" arrivalPos="88.68" duration="1.00" routeLength="1.00" timeLoss="0.28" maxSpeed="1.39"/>
        <ride waitingTime="619.00" vehicle="bus_43:0.0" depart="863.00" arrival="1364.00" arrivalPos="64.53" duration="501.00" routeLength="5671.30" timeLoss="102.94"/>
    </personinfo>
    <personinfo id="410475114.22.856" depart="856.00" type="DEFAULT_PEDTYPE">
        <walk depart="856.00" departPos="84.99" arrival="857.00" arrivalPos="85.99" duration="1.00" routeLength="1.00" timeLoss="0.28" maxSpeed="1.39"/>
        <ride waitingTime="101.00" vehicle="bus_22:0.1" depart="958.00" arrival="1391.00" arrivalPos="39.64" duration="433.00" routeLength="5721.13" timeLoss="64.01"/>
    </personinfo>
    <personinfo id="410478271.43.275" depart="275.00" type="DEFAULT_PEDTYPE">
        <walk depart="275.00" departPos="146.50" arrival="392.00" arrivalPos="0.00" duration="117.00" routeLength="146.50" timeLoss="11.52" maxSpeed="1.39"/>
        <ride waitingTime="850.00" vehicle="bus_43:0.0" depart="1242.00" arrival="1398.00" arrivalPos="81.82" duration="156.00" routeLength="1909.39" timeLoss="24.43"/>
    </personinfo>
    <personinfo id="1531005322.43.94" depart="94.00" type="DEFAULT_PEDTYPE">
        <walk depart="94.00" departPos="12.13" arrival="95.00" arrivalPos="13.13" duration="1.00" routeLength="1.00" timeLoss="0.28" maxSpeed="1.39"/>
        <ride waitingTime="601.00" vehicle="bus_43:0.0" depart="696.00" arrival="1454.00" arrivalPos="69.89" duration="758.00" routeLength="9120.41" timeLoss="146.78"/>
    </personinfo>
    <personinfo id="410459901.22.151" depart="151.00" type="DEFAULT_PEDTYPE">
        <walk depart="151.00" departPos="553.15" arrival="593.00" arrivalPos="0.00" duration="442.00" routeLength="553.15" timeLoss="43.73" maxSpeed="1.39"/>
        <ride waitingTime="94.00" vehicle="bus_22:0.1" depart="687.00" arrival="1499.00" arrivalPos="11.70" duration="812.00" routeLength="10903.55" timeLoss="134.30"/>
    </personinfo>
    <personinfo id="410462291.43.115" depart="115.00" type="DEFAULT_PEDTYPE">
        <walk depart="115.00" departPos="415.85" arrival="449.00" arrivalPos="0.00" duration="334.00" routeLength="415.85" timeLoss="34.59" maxSpeed="1.39"/>
        <ride waitingTime="595.00" vehicle="bus_43:0.1" depart="1044.00" arrival="1522.00" arrivalPos="103.68" duration="478.00" routeLength="6131.83" timeLoss="94.03"/>
    </personinfo>
    <personinfo id="410462103.22.810" depart="810.00" type="DEFAULT_PEDTYPE">
        <walk depart="810.00" departPos="11.46" arrival="811.00" arrivalPos="12.46" duration="1.00" routeLength="1.00" timeLoss="0.28" maxSpeed="1.39"/>
        <ride waitingTime="88.00" vehicle="bus_22:0.1" depart="899.00" arrival="1540.00" arrivalPos="12.27" duration="641.00" routeLength="8202.49" timeLoss="113.94"/>
    </personinfo>
    <personinfo id="410465917.22.898" depart="898.00" type="DEFAULT_PEDTYPE">
        <walk depart="898.00" departPos="21.70" arrival="899.00" arrivalPos="22.70" duration="1.00" routeLength="1.00" timeLoss="0.28" maxSpeed="1.39"/>
        <ride waitingTime="558.00" vehicle="bus_22:0.1" depart="1457.00" arrival="1540.00" arrivalPos="12.27" duration="83.00" routeLength="933.86" timeLoss="24.83"/>
    </personinfo>
    <personinfo id="1849631273.43.355" depart="355.00" type="DEFAULT_PEDTYPE">
        <walk depart="355.00" departPos="413.46" arrival="686.00" arrivalPos="0.00" duration="331.00" routeLength="413.46" timeLoss="33.31" maxSpeed="1.39"/>
        <ride waitingTime="229.00" vehicle="bus_43:0.1" depart="915.00" arrival="1551.00" arrivalPos="107.56" duration="636.00" routeLength="7841.03" timeLoss="140.52"/>
    </personinfo>
    <personinfo id="410486991.43.301" depart="301.00" type="DEFAULT_PEDTYPE">
        <walk depart="301.00" departPos="194.33" arrival="302.00" arrivalPos="195.33" duration="1.00" routeLength="1.00" timeLoss="0.28" maxSpeed="1.39"/>
        <ride waitingTime="168.00" vehicle="bus_43:0.0" depart="470.00" arrival="1563.00" arrivalPos="117.10" duration="1093.00" routeLength="13665.08" timeLoss="199.66"/>
    </personinfo>
    <personinfo id="410459901.22.256" depart="256.00" type="DEFAULT_PEDTYPE">
        <walk depart="256.00" departPos="553.15" arrival="701.00" arrivalPos="0.00" duration="445.00" routeLength="553.15" timeLoss="46.73" maxSpeed="1.39"/>
        <ride waitingTime="585.00" vehicle="bus_22:0.2" depart="1286.00" arrival="1582.00" arrivalPos="44.58" duration="296.00" routeLength="4257.06" timeLoss="50.87"/>
    </personinfo>
    <personinfo id="410465917.22.1402" depart="1402.00" type="DEFAULT_PEDTYPE">
        <walk depart="1402.00" departPos="21.70" arrival="1403.00" arrivalPos="22.70" duration="1.00" routeLength="1.00" timeLoss="0.28" maxSpeed="1.39"/>
        <ride waitingTime="54.00" vehicle="bus_22:0.1" depart="1457.00" arrival="1606.00" arrivalPos="85.49" duration="149.00" routeLength="1659.38" timeLoss="34.92"/>
    </personinfo>
    <personinfo id="410462293.43.16" depart="16.00" type="DEFAULT_PEDTYPE">
        <walk depart="16.00" departPos="10.48" arrival="17.00" arrivalPos="11.48" duration="1.00" routeLength="1.00" timeLoss="0.28" maxSpeed="1.39"/>
        <ride waitingTime="337.00" vehicle="bus_43:0.0" depart="354.00" arrival="1647.00" arrivalPos="32.35" duration="1293.00" routeLength="16273.74" timeLoss="239.01"/>
    </personinfo>
    <personinfo id="410483103.22.936" depart="936.00" type="DEFAULT_PEDTYPE">
        <walk depart="936.00" departPos="165.36" arrival="937.00" arrivalPos="166.36" duration="1.00" routeLength="1.00" timeLoss="0.28" maxSpeed="1.39"/>
        <ride waitingTime="75.00" vehicle="bus_22:0.1" depart="1012.00" arrival="1700.00" arrivalPos="272.83" duration="688.00" routeLength="8206.36" timeLoss="108.91"/>
    </personinfo>
    <personinfo id="410465915.22.1075" depart="1075.00" type="DEFAULT_PEDTYPE">
        <walk depart="1075.00" departPos="138.08" arrival="1186.00" arrivalPos="0.00" duration="111.00" routeLength="138.08" timeLoss="11.58" maxSpeed="1.39"/>
        <ride waitingTime="314.00" vehicle="bus_22:0.1" depart="1500.00" arrival="1700.00" arrivalPos="272.83" duration="200.00" routeLength="1860.39" timeLoss="33.97"/>
    </personinfo>
    <personinfo id="410465915.22.1164" depart="1164.00" type="DEFAULT_PEDTYPE">
        <walk depart="1164.00" departPos="138.08" arrival="1275.00" arrivalPos="0.00" duration="111.00" routeLength="138.08" timeLoss="11.58" maxSpeed="1.39"/>
        <ride waitingTime="225.00" vehicle="bus_22:0.1" depart="1500.00" arrival="1700.00" arrivalPos="272.83" duration="200.00" routeLength="1860.39" timeLoss="33.97"/>
    </personinfo>
    <personinfo id="410465915.22.1205" depart="1205.00" type="DEFAULT_PEDTYPE">
        <walk depart="1205.00" departPos="138.08" arrival="1316.00" arrivalPos="0.00" duration="111.00" routeLength="138.08" timeLoss="11.58" maxSpeed="1.39"/>
        <ride waitingTime="184.00" vehicle="bus_22:0.1" depart="1500.00" arrival="1701.00" arrivalPos="272.83" duration="201.00" routeLength="1860.39" timeLoss="33.97"/>
    </personinfo>
    <personinfo id="410466111.22.1557" depart="1557.00" type="DEFAULT_PEDTYPE">
        <walk depart="1557.00" departPos="69.51" arrival="1558.00" arrivalPos="70.51" duration="1.00" routeLength="1.00" timeLoss="0.28" maxSpeed="1.39"/>
        <ride waitingTime="49.00" vehicle="bus_22:0.1" depart="1607.00" arrival="1701.00" arrivalPos="272.83" duration="94.00" routeLength="676.10" timeLoss="11.55"/>
    </personinfo>
    <personinfo id="410462293.43.1498" depart="1498.00" type="DEFAULT_PEDTYPE">
        <walk depart="1498.00" departPos="10.48" arrival="1499.00" arrivalPos="11.48" duration="1.00" routeLength="1.00" timeLoss="0.28" maxSpeed="1.39"/>
        <ride waitingTime="96.00" vehicle="bus_43:0.2" depart="1595.00" arrival="1722.00" arrivalPos="210.33" duration="127.00" routeLength="1478.48" timeLoss="35.99"/>
    </personinfo>
    <tripinfo id="bus_22:0.1" depart="600.00" departLane="543768663_0" departPos="7.80" departSpeed="0.00" departDelay="0.00" arrival="1736.00" arrivalLane="245934570#2_0" arrivalPos="434.14" arrivalSpeed="5.45" duration="1136.00" routeLength="13427.11" waitingTime="2.00" waitingCount="2" stopTime="19.00" timeLoss="186.68" rerouteNo="0" devices="tripinfo_bus_22:0.1 person_bus_22:0.1" vType="bus" speedFactor="1.00" vaporized=""/>
    <personinfo id="410459904.22.1044" depart="1044.00" type="DEFAULT_PEDTYPE">
        <walk depart="1044.00" departPos="19.22" arrival="1045.00" arrivalPos="20.22" duration="1.00" routeLength="1.00" timeLoss="0.28" maxSpeed="1.39"/>
        <ride waitingTime="297.00" vehicle="bus_22:0.2" depart="1342.00" arrival="1806.00" arrivalPos="12.12" duration="464.00" routeLength="6711.30" timeLoss="60.64"/>
    </personinfo>
    <personinfo id="410462293.43.930" depart="930.00" type="DEFAULT_PEDTYPE">
        <walk depart="930.00" departPos="10.48" arrival="931.00" arrivalPos="11.48" duration="1.00" routeLength="1.00" timeLoss="0.28" maxSpeed="1.39"/>
        <ride waitingTime="54.00" vehicle="bus_43:0.1" depart="985.00" arrival="1815.00" arrivalPos="24.50" duration="830.00" routeLength="10603.28" timeLoss="143.53"/>
    </personinfo>
    <personinfo id="410478275.43.1003" depart="1003.00" type="DEFAULT_PEDTYPE">
        <walk depart="1003.00" departPos="29.48" arrival="1004.00" arrivalPos="30.48" duration="1.00" routeLength="1.00" timeLoss="0.28" maxSpeed="1.39"/>
        <ride waitingTime="117.00" vehicle="bus_43:0.0" depart="1121.00" arrival="1832.00" arrivalPos="16.46" duration="711.00" routeLength="8737.48" timeLoss="111.39"/>
    </personinfo>
    <personinfo id="410486991.43.774" depart="774.00" type="DEFAULT_PEDTYPE">
        <walk depart="774.00" departPos="194.33" arrival="775.00" arrivalPos="195.33" duration="1.00" routeLength="1.00" timeLoss="0.28" maxSpeed="1.39"/>
        <ride waitingTime="327.00" vehicle="bus_43:0.1" depart="1102.00" arrival="1856.00" arrivalPos="7.70" duration="754.00" routeLength="9519.13" timeLoss="130.15"/>
    </personinfo>
    <tripinfo id="bus_43:0.0" depart="0.00" departLane="1111008091_0" departPos="12.10" departSpeed="0.00" departDelay="0.00" arrival="1868.00" arrivalLane="528461109_0" arrivalPos="190.48" arrivalSpeed="5.54" duration="1868.00" routeLength="23451.88" waitingTime="4.00" waitingCount="4" stopTime="20.00" timeLoss="301.40" rerouteNo="0" devices="tripinfo_bus_43:0.0 person_bus_43:0.0" vType="bus" speedFactor="1.00" vaporized=""/>
    <personinfo id="410482570.43.1527" depart="1527.00" type="DEFAULT_PEDTYPE">
        <walk depart="1527.00" departPos="91.56" arrival="1528.00" arrivalPos="92.56" duration="1.00" routeLength="1.00" timeLoss="0.28" maxSpeed="1.39"/>
        <ride waitingTime="25.00" vehicle="bus_43:0.1" depart="1553.00" arrival="1927.00" arrivalPos="13.93" duration="374.00" routeLength="4625.69" timeLoss="50.54"/>
    </personinfo>
    <personinfo id="1849631269.43.780" depart="780.00" type="DEFAULT_PEDTYPE">
        <walk depart="780.00" departPos="160.44" arrival="910.00" arrivalPos="0.00" duration="130.00" routeLength="160.44" timeLoss="14.48" maxSpeed="1.39"/>
        <ride waitingTime="531.00" vehicle="bus_43:0.2" depart="1441.00" arrival="1943.00" arrivalPos="100.97" duration="502.00" routeLength="5862.81" timeLoss="122.67"/>
    </personinfo>
    <personinfo id="410459904.22.1131" depart="1131.00" type="DEFAULT_PEDTYPE">
        <walk depart="1131.00" departPos="19.22" arrival="1132.00" arrivalPos="20.22" duration="1.00" routeLength="1.00" timeLoss="0.28" maxSpeed="1.39"/>
        <ride waitingTime="210.00" vehicle="bus_22:0.2" depart="1342.00" arrival="1953.00" arrivalPos="42.17" duration="611.00" routeLength="8657.65" timeLoss="80.73"/>
    </personinfo>
    <personinfo id="410462211.43.1021" depart="1021.00" type="DEFAULT_PEDTYPE">
        <walk depart="1021.00" departPos="18.63" arrival="1022.00" arrivalPos="19.63" duration="1.00" routeLength="1.00" timeLoss="0.28" maxSpeed="1.39"/>
        <ride waitingTime="610.00" vehicle="bus_43:0.2" depart="1632.00" arrival="1995.00" arrivalPos="181.35" duration="363.00" routeLength="4361.35" timeLoss="89.07"/>
    </personinfo>
    <personinfo id="410475114.22.1307" depart="1307.00" type="DEFAULT_PEDTYPE">
        <walk depart="1307.00" departPos="84.99" arrival="1308.00" arrivalPos="85.99" duration="1.00" routeLength="1.00" timeLoss="0.28" maxSpeed="1.39"/>
        <ride waitingTime="241.00" vehicle="bus_22:0.2" depart="1549.00" arrival="2013.00" arrivalPos="44.40" duration="464.00" routeLength="6111.50" timeLoss="68.40"/>
    </personinfo>
    <personinfo id="1531005322.43.1173" depart="1173.00" type="DEFAULT_PEDTYPE">
        <walk depart="1173.00" departPos="12.13" arrival="1174.00" arrivalPos="13.13" duration="1.00" routeLength="1.00" timeLoss="0.28" maxSpeed="1.39"/>
        <ride waitingTime="168.00" vehicle="bus_43:0.1" depart="1342.00" arrival="2015.00" arrivalPos="81.85" duration="673.00" routeLength="8420.82" timeLoss="106.47"/>
    </personinfo>
    <personinfo id="410486955.43.1347" depart="1347.00" type="DEFAULT_PEDTYPE">
        <walk depart="1347.00" departPos="49.88" arrival="1348.00" arrivalPos="50.88" duration="1.00" routeLength="1.00" timeLoss="0.28" maxSpeed="1.39"/>
        <ride waitingTime="415.00" vehicle="bus_43:0.2" depart="1763.00" arrival="2023.00" arrivalPos="18.85" duration="260.00" routeLength="3096.00" timeLoss="64.30"/>
    </personinfo>
    <personinfo id="1849631273.43.336" depart="336.00" type="DEFAULT_PEDTYPE">
        <walk depart="336.00" departPos="413.46" arrival="668.00" arrivalPos="0.00" duration="332.00" routeLength="413.46" timeLoss="34.31" maxSpeed="1.39"/>
        <ride waitingTime="247.00" vehicle="bus_43:0.1" depart="915.00" arrival="2042.00" arrivalPos="12.87" duration="1127.00" routeLength="13851.81" timeLoss="217.01"/>
    </personinfo>
    <personinfo id="410459904.22.1334" depart="1334.00" type="DEFAULT_PEDTYPE">
        <walk depart="1334.00" departPos="19.22" arrival="1339.00" arrivalPos="20.22" duration="5.00" routeLength="1.00" timeLoss="4.28" maxSpeed="1.39"/>
        <ride waitingTime="3.00" vehicle="bus_22:0.2" depart="1342.00" arrival="2052.00" arrivalPos="37.67" duration="710.00" routeLength="9755.00" timeLoss="106.07"/>
    </personinfo>
    <personinfo id="410465916.22.1594" depart="1594.00" type="DEFAULT_PEDTYPE">
        <walk depart="1594.00" departPos="28.40" arrival="1595.00" arrivalPos="29.40" duration="1.00" routeLength="1.00" timeLoss="0.28" maxSpeed="1.39"/>
        <ride waitingTime="419.00" vehicle="bus_22:0.2" depart="2014.00" arrival="2052.00" arrivalPos="37.67" duration="38.00" routeLength="395.30" timeLoss="13.29"/>
    </personinfo>
    <personinfo id="410465917.22.1635" depart="1635.00" type="DEFAULT_PEDTYPE">
        <walk depart="1635.00" departPos="21.70" arrival="1636.00" arrivalPos="22.70" duration="1.00" routeLength="1.00" timeLoss="0.28" maxSpeed="1.39"/>
        <ride waitingTime="418.00" vehicle="bus_22:0.2" depart="2054.00" arrival="2094.00" arrivalPos="11.73" duration="40.00" routeLength="475.16" timeLoss="11.50"/>
    </personinfo>
    <personinfo id="410465917.22.1523" depart="1523.00" type="DEFAULT_PEDTYPE">
        <walk depart="1523.00" departPos="21.70" arrival="1524.00" arrivalPos="22.70" duration="1.00" routeLength="1.00" timeLoss="0.28" maxSpeed="1.39"/>
        <ride waitingTime="530.00" vehicle="bus_22:0.2" depart="2054.00" arrival="2136.00" arrivalPos="12.26" duration="82.00" routeLength="933.88" timeLoss="23.74"/>
    </personinfo>
    <personinfo id="410465915.22.1695" depart="1695.00" type="DEFAULT_PEDTYPE">
        <walk depart="1695.00" departPos="138.08" arrival="1805.00" arrivalPos="0.00" duration="110.00" routeLength="138.08" timeLoss="10.58" maxSpeed="1.39"/>
        <ride waitingTime="291.00" vehicle="bus_22:0.2" depart="2096.00" arrival="2136.00" arrivalPos="12.26" duration="40.00" routeLength="458.75" timeLoss="12.24"/>
    </personinfo>
    <personinfo id="410462266.43.982" depart="982.00" type="DEFAULT_PEDTYPE">
        <walk depart="982.00" departPos="50.19" arrival="983.00" arrivalPos="51.19" duration="1.00" routeLength="1.00" timeLoss="0.28" maxSpeed="1.39"/>
        <ride waitingTime="593.00" vehicle="bus_43:0.2" depart="1576.00" arrival="2156.00" arrivalPos="103.66" duration="580.00" routeLength="6983.01" timeLoss="142.20"/>
    </personinfo>
    <personinfo id="1847853709.43.432" depart="432.00" type="DEFAULT_PEDTYPE">
        <walk depart="432.00" departPos="41.23" arrival="433.00" arrivalPos="42.23" duration="1.00" routeLength="1.00" timeLoss="0.28" maxSpeed="1.39"/>
        <ride waitingTime="197.00" vehicle="bus_43:0.1" depart="630.00" arrival="2168.00" arrivalPos="459.58" duration="1538.00" routeLength="19321.07" timeLoss="280.45"/>
    </personinfo>
    <personinfo id="410462101.22.2075" depart="2075.00" type="DEFAULT_PEDTYPE">
        <walk depart="2075.00" departPos="11.46" arrival="2076.00" arrivalPos="12.46" duration="1.00" routeLength="1.00" timeLoss="0.28" maxSpeed="1.39"/>
        <ride waitingTime="30.00" vehicle="bus_22:0.3" depart="2106.00" arrival="2187.00" arrivalPos="44.59" duration="81.00" routeLength="1097.23" timeLoss="15.18"/>
    </personinfo>
    <personinfo id="410462266.43.1217" depart="1217.00" type="DEFAULT_PEDTYPE">
        <walk depart="1217.00" departPos="50.19" arrival="1218.00" arrivalPos="51.19" duration="1.00" routeLength="1.00" timeLoss="0.28" maxSpeed="1.39"/>
        <ride waitingTime="358.00" vehicle="bus_43:0.2" depart="1576.00" arrival="2187.00" arrivalPos="107.54" duration="611.00" routeLength="7247.65" timeLoss="153.15"/>
    </personinfo>
    <personinfo id="410474348.43.1043" depart="1043.00" type="DEFAULT_PEDTYPE">
        <walk depart="1043.00" departPos="25.59" arrival="1044.00" arrivalPos="26.59" duration="1.00" routeLength="1.00" timeLoss="0.28" maxSpeed="1.39"/>
        <ride waitingTime="343.00" vehicle="bus_43:0.2" depart="1387.00" arrival="2233.00" arrivalPos="12.11" duration="846.00" routeLength="9963.43" timeLoss="199.43"/>
    </personinfo>
    <personinfo id="410474348.43.1270" depart="1270.00" type="DEFAULT_PEDTYPE">
        <walk depart="1270.00" departPos="25.59" arrival="1271.00" arrivalPos="26.59" duration="1.00" routeLength="1.00" timeLoss="0.28" maxSpeed="1.39"/>
        <ride waitingTime="116.00" vehicle="bus_43:0.2" depart="1387.00" arrival="2233.00" arrivalPos="12.11" duration="846.00" routeLength="9963.43" timeLoss="199.43"/>
    </personinfo>
    <personinfo id="410467564.43.1687" depart="1687.00" type="DEFAULT_PEDTYPE">
        <walk depart="1687.00" departPos="53.90" arrival="1688.00" arrivalPos="54.90" duration="1.00" routeLength="1.00" timeLoss="0.28" maxSpeed="1.39"/>
        <ride waitingTime="394.00" vehicle="bus_43:0.1" depart="2082.00" arrival="2250.00" arrivalPos="62.15" duration="168.00" routeLength="2255.89" timeLoss="31.68"/>
    </personinfo>
    <personinfo id="1849631331.43.1652" depart="1652.00" type="DEFAULT_PEDTYPE">
        <walk depart="1652.00" departPos="42.45" arrival="1653.00" arrivalPos="43.45" duration="1.00" routeLength="1.00" timeLoss="0.28" maxSpeed="1.39"/>
        <ride waitingTime="236.00" vehicle="bus_43:0.3" depart="1889.00" arrival="2284.00" arrivalPos="210.33" duration="395.00" routeLength="5298.21" timeLoss="57.79"/>
    </personinfo>
    <personinfo id="1849631269.43.205" depart="205.00" type="DEFAULT_PEDTYPE">
        <walk depart="205.00" departPos="160.44" arrival="335.00" arrivalPos="0.00" duration="130.00" routeLength="160.44" timeLoss="14.48" maxSpeed="1.39"/>
        <ride waitingTime="493.00" vehicle="bus_43:0.1" depart="828.00" arrival="2286.00" arrivalPos="32.34" duration="1458.00" routeLength="17985.76" timeLoss="282.74"/>
    </personinfo>
    <personinfo id="410462266.43.453" depart="453.00" type="DEFAULT_PEDTYPE">
        <walk depart="453.00" departPos="50.19" arrival="454.00" arrivalPos="51.19" duration="1.00" routeLength="1.00" timeLoss="0.28" maxSpeed="1.39"/>
        <ride waitingTime="511.00" vehicle="bus_43:0.1" depart="965.00" arrival="2286.00" arrivalPos="32.34" duration="1321.00" routeLength="16381.68" timeLoss="256.48"/>
    </personinfo>
    <personinfo id="410465917.22.1777" depart="1777.00" type="DEFAULT_PEDTYPE">
        <walk depart="1777.00" departPos="21.70" arrival="1778.00" arrivalPos="22.70" duration="1.00" routeLength="1.00" timeLoss="0.28" maxSpeed="1.39"/>
        <ride waitingTime="276.00" vehicle="bus_22:0.2" depart="2054.00" arrival="2289.00" arrivalPos="272.83" duration="235.00" routeLength="2335.48" timeLoss="39.36"/>
    </personinfo>
    <personinfo id="410465915.22.1901" depart="1901.00" type="DEFAULT_PEDTYPE">