<?xml version="1.0" encoding="UTF-8"?>

<!-- generated on 2024-05-14 19:01:46 by Eclipse SUMO sumo Version 1.14.1
<configuration xmlns:xsi="http://www.w3.org/2001/XMLSchema-instance" xsi:noNamespaceSchemaLocation="http://sumo.dlr.de/xsd/sumoConfiguration.xsd">

    <input>
        <net-file value="singapore/sumo/singaporeInitial.net.xml"/>
        <route-files value="singapore/sumo/busFlows.rou.xml"/>
        <additional-files value="singapore/sumo/busstops.xml"/>
    </input>

    <output>
        <tripinfo-output value="tripinfo.xml"/>
    </output>

    <processing>
        <no-internal-links value="true"/>
        <time-to-teleport value="550"/>
    </processing>

    <traci_server>
        <remote-port value="60694"/>
    </traci_server>

</configuration>
-->

<tripinfos xmlns:xsi="http://www.w3.org/2001/XMLSchema-instance" xsi:noNamespaceSchemaLocation="http://sumo.dlr.de/xsd/tripinfo_file.xsd">
    <personinfo id="410459904.22.194" depart="194.00" type="DEFAULT_PEDTYPE">
        <walk depart="194.00" departPos="19.22" arrival="195.00" arrivalPos="20.22" duration="1.00" routeLength="1.00" timeLoss="0.28" maxSpeed="1.39"/>
        <ride waitingTime="117.00" vehicle="bus_22:0.0" depart="312.00" arrival="427.00" arrivalPos="48.70" duration="115.00" routeLength="431.07" timeLoss="9.87"/>
    </personinfo>
    <personinfo id="410460005.22.12" depart="12.00" type="DEFAULT_PEDTYPE">
        <walk depart="12.00" departPos="286.81" arrival="242.00" arrivalPos="0.00" duration="230.00" routeLength="286.81" timeLoss="23.50" maxSpeed="1.39"/>
        <ride waitingTime="360.00" vehicle="bus_22:0.1" depart="602.00" arrival="1027.00" arrivalPos="48.68" duration="425.00" routeLength="1598.16" timeLoss="35.22"/>
    </personinfo>
    <personinfo id="410462293.43.351" depart="351.00" type="DEFAULT_PEDTYPE">
        <walk depart="351.00" departPos="10.48" arrival="352.00" arrivalPos="11.48" duration="1.00" routeLength="1.00" timeLoss="0.28" maxSpeed="1.39"/>
        <ride waitingTime="1188.00" vehicle="bus_43:0.0" depart="1540.00" arrival="1656.00" arrivalPos="29.61" duration="116.00" routeLength="425.21" timeLoss="11.30"/>
    </personinfo>
    <personinfo id="410460005.22.173" depart="173.00" type="DEFAULT_PEDTYPE">
        <walk depart="173.00" departPos="286.81" arrival="402.00" arrivalPos="0.00" duration="229.00" routeLength="286.81" timeLoss="22.50" maxSpeed="1.39"/>
        <ride waitingTime="200.00" vehicle="bus_22:0.1" depart="602.00" arrival="1657.00" arrivalPos="22.46" duration="1055.00" routeLength="3653.99" timeLoss="84.82"/>
    </personinfo>
    <personinfo id="1531005322.22.698" depart="698.00" type="DEFAULT_PEDTYPE">
        <walk depart="698.00" departPos="12.13" arrival="699.00" arrivalPos="13.13" duration="1.00" routeLength="1.00" timeLoss="0.28" maxSpeed="1.39"/>
        <ride waitingTime="1136.00" vehicle="bus_22:0.0" depart="1835.00" arrival="2137.00" arrivalPos="31.76" duration="302.00" routeLength="1120.95" timeLoss="27.62"/>
    </personinfo>
    <personinfo id="410462103.22.1543" depart="1543.00" type="DEFAULT_PEDTYPE">
        <walk depart="1543.00" departPos="51.46" arrival="1544.00" arrivalPos="52.46" duration="1.00" routeLength="1.00" timeLoss="0.28" maxSpeed="1.39"/>
        <ride waitingTime="308.00" vehicle="bus_22:0.1" depart="1852.00" arrival="2225.00" arrivalPos="95.99" duration="373.00" routeLength="721.91" timeLoss="196.93"/>
    </personinfo>
    <personinfo id="410462101.22.1414" depart="1414.00" type="DEFAULT_PEDTYPE">
        <walk depart="1414.00" departPos="11.46" arrival="1415.00" arrivalPos="12.46" duration="1.00" routeLength="1.00" timeLoss="0.28" maxSpeed="1.39"/>
        <ride waitingTime="333.00" vehicle="bus_22:0.1" depart="1748.00" arrival="2525.00" arrivalPos="176.36" duration="777.00" routeLength="1397.75" timeLoss="333.10"/>
    </personinfo>
    <personinfo id="410462211.43.860" depart="860.00" type="DEFAULT_PEDTYPE">
        <walk depart="860.00" departPos="18.63" arrival="861.00" arrivalPos="19.63" duration="1.00" routeLength="1.00" timeLoss="0.28" maxSpeed="1.39"/>
        <ride waitingTime="821.00" vehicle="bus_43:0.0" depart="1682.00" arrival="2607.00" arrivalPos="11.11" duration="925.00" routeLength="2168.89" timeLoss="57.05"/>
    </personinfo>
    <personinfo id="410486991.43.1057" depart="1057.00" type="DEFAULT_PEDTYPE">
        <walk depart="1057.00" departPos="194.33" arrival="1058.00" arrivalPos="195.33" duration="1.00" routeLength="1.00" timeLoss="0.28" maxSpeed="1.39"/>
        <ride waitingTime="1062.00" vehicle="bus_43:0.0" depart="2120.00" arrival="2608.00" arrivalPos="11.11" duration="488.00" routeLength="1116.98" timeLoss="30.58"/>
    </personinfo>
    <personinfo id="1849631331.43.1919" depart="1919.00" type="DEFAULT_PEDTYPE">
        <walk depart="1919.00" departPos="42.45" arrival="1920.00" arrivalPos="43.45" duration="1.00" routeLength="1.00" timeLoss="0.28" maxSpeed="1.39"/>
        <ride waitingTime="136.00" vehicle="bus_43:0.3" depart="2056.00" arrival="2615.00" arrivalPos="10.30" duration="559.00" routeLength="2115.15" timeLoss="43.13"/>
    </personinfo>
    <personinfo id="410462103.22.129" depart="129.00" type="DEFAULT_PEDTYPE">
        <walk depart="129.00" departPos="51.46" arrival="130.00" arrivalPos="52.46" duration="1.00" routeLength="1.00" timeLoss="0.28" maxSpeed="1.39"/>
        <ride waitingTime="856.00" vehicle="bus_22:0.0" depart="986.00" arrival="2675.00" arrivalPos="258.31" duration="1689.00" routeLength="3866.65" timeLoss="668.95"/>
    </personinfo>
    <personinfo id="410462103.22.1240" depart="1240.00" type="DEFAULT_PEDTYPE">
        <walk depart="1240.00" departPos="51.46" arrival="1241.00" arrivalPos="52.46" duration="1.00" routeLength="1.00" timeLoss="0.28" maxSpeed="1.39"/>
        <ride waitingTime="611.00" vehicle="bus_22:0.1" depart="1852.00" arrival="2771.00" arrivalPos="31.74" duration="919.00" routeLength="2163.06" timeLoss="349.44"/>
    </personinfo>
    <personinfo id="410486955.43.2338" depart="2338.00" type="DEFAULT_PEDTYPE">
        <walk depart="2338.00" departPos="49.88" arrival="2339.00" arrivalPos="50.88" duration="1.00" routeLength="1.00" timeLoss="0.28" maxSpeed="1.39"/>
        <ride waitingTime="366.00" vehicle="bus_43:0.1" depart="2705.00" arrival="2816.00" arrivalPos="29.60" duration="111.00" routeLength="407.51" timeLoss="11.63"/>
    </personinfo>
    <personinfo id="4430976208.43.1313" depart="1313.00" type="DEFAULT_PEDTYPE">
        <walk depart="1313.00" departPos="18.61" arrival="1314.00" arrivalPos="19.61" duration="1.00" routeLength="1.00" timeLoss="0.28" maxSpeed="1.39"/>
        <ride waitingTime="1224.00" vehicle="bus_43:0.0" depart="2538.00" arrival="2817.00" arrivalPos="40.59" duration="279.00" routeLength="683.19" timeLoss="20.38"/>
    </personinfo>
    <personinfo id="410482568.22.2151" depart="2151.00" type="DEFAULT_PEDTYPE">
        <walk depart="2151.00" departPos="3.17" arrival="2152.00" arrivalPos="4.17" duration="1.00" routeLength="1.00" timeLoss="0.28" maxSpeed="1.39"/>
        <ride waitingTime="114.00" vehicle="bus_22:0.0" depart="2266.00" arrival="2857.00" arrivalPos="29.17" duration="591.00" routeLength="2181.08" timeLoss="55.05"/>
    </personinfo>
    <personinfo id="1849631269.43.2182" depart="2182.00" type="DEFAULT_PEDTYPE">
        <walk depart="2182.00" departPos="160.44" arrival="2311.00" arrivalPos="0.00" duration="129.00" routeLength="160.44" timeLoss="13.48" maxSpeed="1.39"/>
        <ride waitingTime="306.00" vehicle="bus_43:0.3" depart="2617.00" arrival="2893.00" arrivalPos="10.65" duration="276.00" routeLength="1009.74" timeLoss="25.74"/>
    </personinfo>
    <personinfo id="410462293.43.1484" depart="1484.00" type="DEFAULT_PEDTYPE">
        <walk depart="1484.00" departPos="10.48" arrival="1485.00" arrivalPos="11.48" duration="1.00" routeLength="1.00" timeLoss="0.28" maxSpeed="1.39"/>
        <ride waitingTime="55.00" vehicle="bus_43:0.0" depart="1540.00" arrival="2975.00" arrivalPos="108.27" duration="1435.00" routeLength="3268.58" timeLoss="88.85"/>
    </personinfo>
    <personinfo id="410486955.43.1225" depart="1225.00" type="DEFAULT_PEDTYPE">
        <walk depart="1225.00" departPos="49.88" arrival="1226.00" arrivalPos="50.88" duration="1.00" routeLength="1.00" timeLoss="0.28" maxSpeed="1.39"/>
        <ride waitingTime="1111.00" vehicle="bus_43:0.0" depart="2337.00" arrival="2975.00" arrivalPos="108.27" duration="638.00" routeLength="1332.56" timeLoss="39.01"/>
    </personinfo>
    <personinfo id="410459904.22.962" depart="962.00" type="DEFAULT_PEDTYPE">
        <walk depart="962.00" departPos="19.22" arrival="963.00" arrivalPos="20.22" duration="1.00" routeLength="1.00" timeLoss="0.28" maxSpeed="1.39"/>
        <ride waitingTime="549.00" vehicle="bus_22:0.2" depart="1512.00" arrival="3050.00" arrivalPos="24.57" duration="1538.00" routeLength="3569.10" timeLoss="396.52"/>
    </personinfo>
    <personinfo id="1849631269.43.846" depart="846.00" type="DEFAULT_PEDTYPE">
        <walk depart="846.00" departPos="160.44" arrival="975.00" arrivalPos="0.00" duration="129.00" routeLength="160.44" timeLoss="13.48" maxSpeed="1.39"/>
        <ride waitingTime="530.00" vehicle="bus_43:0.1" depart="1505.00" arrival="3114.00" arrivalPos="108.30" duration="1609.00" routeLength="4976.21" timeLoss="119.39"/>
    </personinfo>
    <personinfo id="410462103.22.775" depart="775.00" type="DEFAULT_PEDTYPE">
        <walk depart="775.00" departPos="51.46" arrival="776.00" arrivalPos="52.46" duration="1.00" routeLength="1.00" timeLoss="0.28" maxSpeed="1.39"/>
        <ride waitingTime="210.00" vehicle="bus_22:0.0" depart="986.00" arrival="3122.00" arrivalPos="195.16" duration="2136.00" routeLength="5419.50" timeLoss="708.23"/>
    </personinfo>
    <personinfo id="410482570.22.2450" depart="2450.00" type="DEFAULT_PEDTYPE">
        <walk depart="2450.00" departPos="91.56" arrival="2451.00" arrivalPos="92.56" duration="1.00" routeLength="1.00" timeLoss="0.28" maxSpeed="1.39"/>
        <ride waitingTime="181.00" vehicle="bus_22:0.0" depart="2632.00" arrival="3122.00" arrivalPos="195.16" duration="490.00" routeLength="1708.63" timeLoss="44.30"/>
    </personinfo>
    <personinfo id="410462103.22.222" depart="222.00" type="DEFAULT_PEDTYPE">
        <walk depart="222.00" departPos="51.46" arrival="223.00" arrivalPos="52.46" duration="1.00" routeLength="1.00" timeLoss="0.28" maxSpeed="1.39"/>
        <ride waitingTime="763.00" vehicle="bus_22:0.0" depart="986.00" arrival="3160.00" arrivalPos="323.22" duration="2174.00" routeLength="5547.59" timeLoss="713.01"/>
    </personinfo>
    <personinfo id="410467153.22.2105" depart="2105.00" type="DEFAULT_PEDTYPE">
        <walk depart="2105.00" departPos="8.01" arrival="2106.00" arrivalPos="9.01" duration="1.00" routeLength="1.00" timeLoss="0.28" maxSpeed="1.39"/>
        <ride waitingTime="22.00" vehicle="bus_22:0.2" depart="2128.00" arrival="3222.00" arrivalPos="13.85" duration="1094.00" routeLength="2144.24" timeLoss="368.05"/>
    </personinfo>
    <personinfo id="410462103.22.2272" depart="2272.00" type="DEFAULT_PEDTYPE">
        <walk depart="2272.00" departPos="51.46" arrival="2273.00" arrivalPos="52.46" duration="1.00" routeLength="1.00" timeLoss="0.28" maxSpeed="1.39"/>
        <ride waitingTime="184.00" vehicle="bus_22:0.2" depart="2457.00" arrival="3223.00" arrivalPos="13.85" duration="766.00" routeLength="1602.66" timeLoss="351.13"/>
    </personinfo>
    <personinfo id="410459901.22.1642" depart="1642.00" type="DEFAULT_PEDTYPE">
        <walk depart="1642.00" departPos="553.15" arrival="2083.00" arrivalPos="0.00" duration="441.00" routeLength="553.15" timeLoss="42.73" maxSpeed="1.39"/>
        <ride waitingTime="452.00" vehicle="bus_22:0.4" depart="2535.00" arrival="3244.00" arrivalPos="18.99" duration="709.00" routeLength="2654.83" timeLoss="59.51"/>
    </personinfo>
    <personinfo id="410462103.22.1262" depart="1262.00" type="DEFAULT_PEDTYPE">
        <walk depart="1262.00" departPos="51.46" arrival="1263.00" arrivalPos="52.46" duration="1.00" routeLength="1.00" timeLoss="0.28" maxSpeed="1.39"/>
        <ride waitingTime="589.00" vehicle="bus_22:0.1" depart="1852.00" arrival="3272.00" arrivalPos="102.54" duration="1420.00" routeLength="3710.87" timeLoss="381.94"/>
    </personinfo>
    <personinfo id="410482570.22.1875" depart="1875.00" type="DEFAULT_PEDTYPE">
        <walk depart="1875.00" departPos="91.56" arrival="1876.00" arrivalPos="92.56" duration="1.00" routeLength="1.00" timeLoss="0.28" maxSpeed="1.39"/>
        <ride waitingTime="756.00" vehicle="bus_22:0.0" depart="2632.00" arrival="3285.00" arrivalPos="138.88" duration="653.00" routeLength="2294.90" timeLoss="61.33"/>
    </personinfo>
    <personinfo id="410482520.22.1691" depart="1691.00" type="DEFAULT_PEDTYPE">
        <walk depart="1691.00" departPos="2.85" arrival="1692.00" arrivalPos="3.85" duration="1.00" routeLength="1.00" timeLoss="0.28" maxSpeed="1.39"/>
        <ride waitingTime="294.00" vehicle="bus_22:0.0" depart="1986.00" arrival="3323.00" arrivalPos="37.17" duration="1337.00" routeLength="4528.70" timeLoss="124.51"/>
    </personinfo>
    <personinfo id="410482570.22.2247" depart="2247.00" type="DEFAULT_PEDTYPE">
        <walk depart="2247.00" departPos="91.56" arrival="2248.00" arrivalPos="92.56" duration="1.00" routeLength="1.00" timeLoss="0.28" maxSpeed="1.39"/>
        <ride waitingTime="384.00" vehicle="bus_22:0.0" depart="2632.00" arrival="3323.00" arrivalPos="37.17" duration="691.00" routeLength="2420.46" timeLoss="67.70"/>
    </personinfo>
    <personinfo id="410462293.43.2616" depart="2616.00" type="DEFAULT_PEDTYPE">
        <walk depart="2616.00" departPos="10.48" arrival="2617.00" arrivalPos="11.48" duration="1.00" routeLength="1.00" timeLoss="0.28" maxSpeed="1.39"/>
        <ride waitingTime="465.00" vehicle="bus_43:0.3" depart="3082.00" arrival="3375.00" arrivalPos="10.16" duration="293.00" routeLength="747.20" timeLoss="18.78"/>
    </personinfo>
    <personinfo id="410480721.22.2532" depart="2532.00" type="DEFAULT_PEDTYPE">
        <walk depart="2532.00" departPos="312.24" arrival="2533.00" arrivalPos="313.24" duration="1.00" routeLength="1.00" timeLoss="0.28" maxSpeed="1.39"/>
        <ride waitingTime="628.00" vehicle="bus_22:0.0" depart="3161.00" arrival="3409.00" arrivalPos="34.61" duration="248.00" routeLength="895.53" timeLoss="26.62"/>
    </personinfo>
    <personinfo id="410462103.22.2057" depart="2057.00" type="DEFAULT_PEDTYPE">
        <walk depart="2057.00" departPos="51.46" arrival="2058.00" arrivalPos="52.46" duration="1.00" routeLength="1.00" timeLoss="0.28" maxSpeed="1.39"/>
        <ride waitingTime="399.00" vehicle="bus_22:0.2" depart="2457.00" arrival="3426.00" arrivalPos="14.16" duration="969.00" routeLength="2358.99" timeLoss="368.68"/>
    </personinfo>
    <personinfo id="410462103.22.2265" depart="2265.00" type="DEFAULT_PEDTYPE">
        <walk depart="2265.00" departPos="51.46" arrival="2266.00" arrivalPos="52.46" duration="1.00" routeLength="1.00" timeLoss="0.28" maxSpeed="1.39"/>
        <ride waitingTime="191.00" vehicle="bus_22:0.2" depart="2457.00" arrival="3426.00" arrivalPos="14.16" duration="969.00" routeLength="2358.98" timeLoss="368.68"/>
    </personinfo>
    <personinfo id="410459897.22.2492" depart="2492.00" type="DEFAULT_PEDTYPE">
        <walk depart="2492.00" departPos="23.17" arrival="2493.00" arrivalPos="24.17" duration="1.00" routeLength="1.00" timeLoss="0.28" maxSpeed="1.39"/>
        <ride waitingTime="199.00" vehicle="bus_22:0.4" depart="2692.00" arrival="3501.00" arrivalPos="62.44" duration="809.00" routeLength="2618.39" timeLoss="63.40"/>
    </personinfo>
    <personinfo id="410462101.22.2930" depart="2930.00" type="DEFAULT_PEDTYPE">
        <walk depart="2930.00" departPos="11.46" arrival="2931.00" arrivalPos="12.46" duration="1.00" routeLength="1.00" timeLoss="0.28" maxSpeed="1.39"/>
        <ride waitingTime="556.00" vehicle="bus_22:0.4" depart="3487.00" arrival="3501.00" arrivalPos="62.44" duration="14.00" routeLength="40.01" timeLoss="4.25"/>
    </personinfo>
    <personinfo id="1849631273.43.2195" depart="2195.00" type="DEFAULT_PEDTYPE">
        <walk depart="2195.00" departPos="413.46" arrival="2526.00" arrivalPos="0.00" duration="331.00" routeLength="413.46" timeLoss="33.31" maxSpeed="1.39"/>
        <ride waitingTime="368.00" vehicle="bus_43:0.3" depart="2894.00" arrival="3573.00" arrivalPos="205.31" duration="679.00" routeLength="2174.93" timeLoss="52.56"/>
    </personinfo>
    <personinfo id="410462101.22.1807" depart="1807.00" type="DEFAULT_PEDTYPE">
        <walk depart="1807.00" departPos="11.46" arrival="1808.00" arrivalPos="12.46" duration="1.00" routeLength="1.00" timeLoss="0.28" maxSpeed="1.39"/>
        <ride waitingTime="544.00" vehicle="bus_22:0.2" depart="2352.00" arrival="3609.00" arrivalPos="83.09" duration="1257.00" routeLength="2838.53" timeLoss="383.74"/>
    </personinfo>
    <personinfo id="410482520.22.2825" depart="2825.00" type="DEFAULT_PEDTYPE">
        <walk depart="2825.00" departPos="2.85" arrival="2826.00" arrivalPos="3.85" duration="1.00" routeLength="1.00" timeLoss="0.28" maxSpeed="1.39"/>
        <ride waitingTime="398.00" vehicle="bus_22:0.2" depart="3224.00" arrival="3609.00" arrivalPos="83.09" duration="385.00" routeLength="1195.87" timeLoss="29.37"/>
    </personinfo>
    <personinfo id="410471030.22.1358" depart="1358.00" type="DEFAULT_PEDTYPE">
        <walk depart="1358.00" departPos="18.18" arrival="1359.00" arrivalPos="19.18" duration="1.00" routeLength="1.00" timeLoss="0.28" maxSpeed="1.39"/>
        <ride waitingTime="1525.00" vehicle="bus_22:0.0" depart="2884.00" arrival="3627.00" arrivalPos="32.70" duration="743.00" routeLength="2688.68" timeLoss="75.31"/>
    </personinfo>
    <personinfo id="410475114.22.2790" depart="2790.00" type="DEFAULT_PEDTYPE">
        <walk depart="2790.00" departPos="84.99" arrival="2791.00" arrivalPos="85.99" duration="1.00" routeLength="1.00" timeLoss="0.28" maxSpeed="1.39"/>
        <ride waitingTime="292.00" vehicle="bus_22:0.3" depart="3083.00" arrival="3659.00" arrivalPos="24.58" duration="576.00" routeLength="320.27" timeLoss="497.90"/>
    </personinfo>
    <personinfo id="410462103.22.1541" depart="1541.00" type="DEFAULT_PEDTYPE">
        <walk depart="1541.00" departPos="51.46" arrival="1542.00" arrivalPos="52.46" duration="1.00" routeLength="1.00" timeLoss="0.28" maxSpeed="1.39"/>
        <ride waitingTime="310.00" vehicle="bus_22:0.1" depart="1852.00" arrival="3684.00" arrivalPos="20.95" duration="1832.00" routeLength="5071.18" timeLoss="416.16"/>
    </personinfo>
    <personinfo id="410462291.43.1630" depart="1630.00" type="DEFAULT_PEDTYPE">
        <walk depart="1630.00" departPos="415.85" arrival="1965.00" arrivalPos="0.00" duration="335.00" routeLength="415.85" timeLoss="35.59" maxSpeed="1.39"/>
        <ride waitingTime="329.00" vehicle="bus_43:0.1" depart="2294.00" arrival="3742.00" arrivalPos="24.59" duration="1448.00" routeLength="3724.37" timeLoss="303.68"/>
    </personinfo>
    <personinfo id="410462103.22.198" depart="198.00" type="DEFAULT_PEDTYPE">
        <walk depart="198.00" departPos="51.46" arrival="199.00" arrivalPos="52.46" duration="1.00" routeLength="1.00" timeLoss="0.28" maxSpeed="1.39"/>
        <ride waitingTime="787.00" vehicle="bus_22:0.0" depart="986.00" arrival="3761.00" arrivalPos="10.71" duration="2775.00" routeLength="7707.78" timeLoss="774.18"/>
    </personinfo>
    <personinfo id="410480716.22.317" depart="317.00" type="DEFAULT_PEDTYPE">
        <walk depart="317.00" departPos="9.98" arrival="318.00" arrivalPos="10.98" duration="1.00" routeLength="1.00" timeLoss="0.28" maxSpeed="1.39"/>
        <ride waitingTime="2710.00" vehicle="bus_22:0.0" depart="3028.00" arrival="3762.00" arrivalPos="10.71" duration="734.00" routeLength="2636.61" timeLoss="75.01"/>
    </personinfo>
    <personinfo id="410465917.22.2286" depart="2286.00" type="DEFAULT_PEDTYPE">
        <walk depart="2286.00" departPos="21.70" arrival="2287.00" arrivalPos="22.70" duration="1.00" routeLength="1.00" timeLoss="0.28" maxSpeed="1.39"/>
        <ride waitingTime="1342.00" vehicle="bus_22:0.0" depart="3629.00" arrival="3762.00" arrivalPos="10.71" duration="133.00" routeLength="479.11" timeLoss="13.16"/>
    </personinfo>
    <personinfo id="410465917.22.3043" depart="3043.00" type="DEFAULT_PEDTYPE">
        <walk depart="3043.00" departPos="21.70" arrival="3044.00" arrivalPos="22.70" duration="1.00" routeLength="1.00" timeLoss="0.28" maxSpeed="1.39"/>
        <ride waitingTime="585.00" vehicle="bus_22:0.0" depart="3629.00" arrival="3763.00" arrivalPos="10.71" duration="134.00" routeLength="479.06" timeLoss="13.16"/>
    </personinfo>
    <personinfo id="410465917.22.3474" depart="3474.00" type="DEFAULT_PEDTYPE">
        <walk depart="3474.00" departPos="21.70" arrival="3475.00" arrivalPos="22.70" duration="1.00" routeLength="1.00" timeLoss="0.28" maxSpeed="1.39"/>
        <ride waitingTime="154.00" vehicle="bus_22:0.0" depart="3629.00" arrival="3763.00" arrivalPos="10.71" duration="134.00" routeLength="479.06" timeLoss="13.16"/>
    </personinfo>
    <personinfo id="410467153.22.1428" depart="1428.00" type="DEFAULT_PEDTYPE">
        <walk depart="1428.00" departPos="8.01" arrival="1429.00" arrivalPos="9.01" duration="1.00" routeLength="1.00" timeLoss="0.28" maxSpeed="1.39"/>
        <ride waitingTime="93.00" vehicle="bus_22:0.1" depart="1522.00" arrival="3780.00" arrivalPos="195.19" duration="2258.00" routeLength="5961.10" timeLoss="441.12"/>
    </personinfo>
    <personinfo id="410471030.22.3365" depart="3365.00" type="DEFAULT_PEDTYPE">
        <walk depart="3365.00" departPos="18.18" arrival="3366.00" arrivalPos="19.18" duration="1.00" routeLength="1.00" timeLoss="0.28" maxSpeed="1.39"/>
        <ride waitingTime="175.00" vehicle="bus_22:0.1" depart="3541.00" arrival="3780.00" arrivalPos="195.19" duration="239.00" routeLength="879.46" timeLoss="23.51"/>
    </personinfo>
    <personinfo id="410459897.22.1868" depart="1868.00" type="DEFAULT_PEDTYPE">
        <walk depart="1868.00" departPos="23.17" arrival="1869.00" arrivalPos="24.17" duration="1.00" routeLength="1.00" timeLoss="0.28" maxSpeed="1.39"/>
        <ride waitingTime="225.00" vehicle="bus_22:0.3" depart="2094.00" arrival="3819.00" arrivalPos="176.35" duration="1725.00" routeLength="3976.17" timeLoss="662.27"/>
    </personinfo>
    <personinfo id="410467153.22.1525" depart="1525.00" type="DEFAULT_PEDTYPE">
        <walk depart="1525.00" departPos="8.01" arrival="1526.00" arrivalPos="9.01" duration="1.00" routeLength="1.00" timeLoss="0.28" maxSpeed="1.39"/>
        <ride waitingTime="602.00" vehicle="bus_22:0.2" depart="2128.00" arrival="3827.00" arrivalPos="98.65" duration="1699.00" routeLength="3987.78" timeLoss="413.44"/>
    </personinfo>
    <personinfo id="410462103.22.2186" depart="2186.00" type="DEFAULT_PEDTYPE">
        <walk depart="2186.00" departPos="51.46" arrival="2187.00" arrivalPos="52.46" duration="1.00" routeLength="1.00" timeLoss="0.28" maxSpeed="1.39"/>
        <ride waitingTime="270.00" vehicle="bus_22:0.2" depart="2457.00" arrival="3827.00" arrivalPos="98.65" duration="1370.00" routeLength="3446.19" timeLoss="396.53"/>
    </personinfo>
    <personinfo id="410460005.22.1565" depart="1565.00" type="DEFAULT_PEDTYPE">
        <walk depart="1565.00" departPos="286.81" arrival="1794.00" arrivalPos="0.00" duration="229.00" routeLength="286.81" timeLoss="22.50" maxSpeed="1.39"/>
        <ride waitingTime="8.00" vehicle="bus_22:0.3" depart="1802.00" arrival="3887.00" arrivalPos="13.84" duration="2085.00" routeLength="5296.64" timeLoss="696.22"/>
    </personinfo>
    <personinfo id="410462103.22.586" depart="586.00" type="DEFAULT_PEDTYPE">
        <walk depart="586.00" departPos="51.46" arrival="587.00" arrivalPos="52.46" duration="1.00" routeLength="1.00" timeLoss="0.28" maxSpeed="1.39"/>
        <ride waitingTime="399.00" vehicle="bus_22:0.0" depart="986.00" arrival="3938.00" arrivalPos="10.27" duration="2952.00" routeLength="8165.51" timeLoss="786.54"/>
    </personinfo>
    <personinfo id="410482564.22.786" depart="786.00" type="DEFAULT_PEDTYPE">
        <walk depart="786.00" departPos="87.68" arrival="787.00" arrivalPos="88.68" duration="1.00" routeLength="1.00" timeLoss="0.28" maxSpeed="1.39"/>
        <ride waitingTime="1771.00" vehicle="bus_22:0.0" depart="2558.00" arrival="3938.00" arrivalPos="10.27" duration="1380.00" routeLength="4719.29" timeLoss="130.06"/>
    </personinfo>
    <personinfo id="410480716.22.242" depart="242.00" type="DEFAULT_PEDTYPE">
        <walk depart="242.00" departPos="9.98" arrival="243.00" arrivalPos="10.98" duration="1.00" routeLength="1.00" timeLoss="0.28" maxSpeed="1.39"/>
        <ride waitingTime="2785.00" vehicle="bus_22:0.0" depart="3028.00" arrival="3939.00" arrivalPos="10.27" duration="911.00" routeLength="3094.36" timeLoss="87.36"/>
    </personinfo>
    <personinfo id="410464248.22.1593" depart="1593.00" type="DEFAULT_PEDTYPE">
        <walk depart="1593.00" departPos="23.64" arrival="1594.00" arrivalPos="24.64" duration="1.00" routeLength="1.00" timeLoss="0.28" maxSpeed="1.39"/>
        <ride waitingTime="1817.00" vehicle="bus_22:0.0" depart="3411.00" arrival="3939.00" arrivalPos="10.27" duration="528.00" routeLength="1722.56" timeLoss="46.91"/>
    </personinfo>
    <personinfo id="410465917.22.2449" depart="2449.00" type="DEFAULT_PEDTYPE">
        <walk depart="2449.00" departPos="21.70" arrival="2450.00" arrivalPos="22.70" duration="1.00" routeLength="1.00" timeLoss="0.28" maxSpeed="1.39"/>
        <ride waitingTime="1179.00" vehicle="bus_22:0.0" depart="3629.00" arrival="3940.00" arrivalPos="10.27" duration="311.00" routeLength="936.87" timeLoss="25.52"/>
    </personinfo>
    <personinfo id="410465917.22.3390" depart="3390.00" type="DEFAULT_PEDTYPE">
        <walk depart="3390.00" departPos="21.70" arrival="3391.00" arrivalPos="22.70" duration="1.00" routeLength="1.00" timeLoss="0.28" maxSpeed="1.39"/>
        <ride waitingTime="238.00" vehicle="bus_22:0.0" depart="3629.00" arrival="3940.00" arrivalPos="10.27" duration="311.00" routeLength="936.81" timeLoss="25.52"/>
    </personinfo>
    <personinfo id="410465915.22.725" depart="725.00" type="DEFAULT_PEDTYPE">
        <walk depart="725.00" departPos="138.08" arrival="835.00" arrivalPos="0.00" duration="110.00" routeLength="138.08" timeLoss="10.58" maxSpeed="1.39"/>
        <ride waitingTime="2979.00" vehicle="bus_22:0.0" depart="3814.00" arrival="3941.00" arrivalPos="10.27" duration="127.00" routeLength="457.78" timeLoss="12.36"/>
    </personinfo>
    <personinfo id="410465915.22.2275" depart="2275.00" type="DEFAULT_PEDTYPE">
        <walk depart="2275.00" departPos="138.08" arrival="2386.00" arrivalPos="0.00" duration="111.00" routeLength="138.08" timeLoss="11.58" maxSpeed="1.39"/>
        <ride waitingTime="1428.00" vehicle="bus_22:0.0" depart="3814.00" arrival="3941.00" arrivalPos="10.27" duration="127.00" routeLength="457.78" timeLoss="12.36"/>
    </personinfo>
    <personinfo id="410465915.22.2513" depart="2513.00" type="DEFAULT_PEDTYPE">
        <walk depart="2513.00" departPos="138.08" arrival="2624.00" arrivalPos="0.00" duration="111.00" routeLength="138.08" timeLoss="11.58" maxSpeed="1.39"/>
        <ride waitingTime="1190.00" vehicle="bus_22:0.0" depart="3814.00" arrival="3942.00" arrivalPos="10.27" duration="128.00" routeLength="457.75" timeLoss="12.36"/>
    </personinfo>
    <personinfo id="410486969.43.3734" depart="3734.00" type="DEFAULT_PEDTYPE">
        <walk depart="3734.00" departPos="0.12" arrival="3735.00" arrivalPos="1.12" duration="1.00" routeLength="1.00" timeLoss="0.28" maxSpeed="1.39"/>
        <ride waitingTime="142.00" vehicle="bus_43:0.3" depart="3877.00" arrival="3993.00" arrivalPos="40.58" duration="116.00" routeLength="432.58" timeLoss="10.50"/>
    </personinfo>
    <personinfo id="410459901.22.1163" depart="1163.00" type="DEFAULT_PEDTYPE">
        <walk depart="1163.00" departPos="553.15" arrival="1606.00" arrivalPos="0.00" duration="443.00" routeLength="553.15" timeLoss="44.73" maxSpeed="1.39"/>
        <ride waitingTime="332.00" vehicle="bus_22:0.3" depart="1938.00" arrival="4040.00" arrivalPos="31.73" duration="2102.00" routeLength="5359.43" timeLoss="696.91"/>
    </personinfo>
    <personinfo id="410462103.22.1943" depart="1943.00" type="DEFAULT_PEDTYPE">
        <walk depart="1943.00" departPos="51.46" arrival="1944.00" arrivalPos="52.46" duration="1.00" routeLength="1.00" timeLoss="0.28" maxSpeed="1.39"/>
        <ride waitingTime="513.00" vehicle="bus_22:0.2" depart="2457.00" arrival="4068.00" arrivalPos="258.30" duration="1611.00" routeLength="3866.62" timeLoss="408.99"/>
    </personinfo>
    <personinfo id="410482491.43.2479" depart="2479.00" type="DEFAULT_PEDTYPE">
        <walk depart="2479.00" departPos="72.10" arrival="2480.00" arrivalPos="73.10" duration="1.00" routeLength="1.00" timeLoss="0.28" maxSpeed="1.39"/>
        <ride waitingTime="1173.00" vehicle="bus_22:0.2" depart="3653.00" arrival="4068.00" arrivalPos="258.30" duration="415.00" routeLength="1068.20" timeLoss="28.49"/>
    </personinfo>
    <personinfo id="410482570.22.3442" depart="3442.00" type="DEFAULT_PEDTYPE">
        <walk depart="3442.00" departPos="91.56" arrival="3443.00" arrivalPos="92.56" duration="1.00" routeLength="1.00" timeLoss="0.28" maxSpeed="1.39"/>
        <ride waitingTime="582.00" vehicle="bus_22:0.2" depart="4025.00" arrival="4068.00" arrivalPos="258.30" duration="43.00" routeLength="155.75" timeLoss="5.02"/>
    </personinfo>
    <personinfo id="2429952037.43.1914" depart="1914.00" type="DEFAULT_PEDTYPE">
        <walk depart="1914.00" departPos="506.84" arrival="2319.00" arrivalPos="0.00" duration="405.00" routeLength="506.84" timeLoss="40.08" maxSpeed="1.39"/>