<?xml version="1.0" encoding="UTF-8"?>

<!-- generated on 2024-05-11 18:55:05 by Eclipse SUMO GUI Version 1.14.1
<configuration xmlns:xsi="http://www.w3.org/2001/XMLSchema-instance" xsi:noNamespaceSchemaLocation="http://sumo.dlr.de/xsd/sumoConfiguration.xsd">

    <input>
        <net-file value="singapore/sumo/singapore.net.xml"/>
        <route-files value="singapore/sumo/busFlows.rou.xml"/>
        <additional-files value="singapore/sumo/busstops.xml"/>
    </input>

    <output>
        <tripinfo-output value="tripinfo.xml"/>
    </output>

    <processing>
        <no-internal-links value="true"/>
        <time-to-teleport value="550"/>
    </processing>

    <traci_server>
        <remote-port value="56775"/>
    </traci_server>

</configuration>
-->

<tripinfos xmlns:xsi="http://www.w3.org/2001/XMLSchema-instance" xsi:noNamespaceSchemaLocation="http://sumo.dlr.de/xsd/tripinfo_file.xsd">
    <personinfo id="410460005.22.121" depart="121.00" type="DEFAULT_PEDTYPE">
        <walk depart="121.00" departPos="286.81" arrival="351.00" arrivalPos="0.00" duration="230.00" routeLength="286.81" timeLoss="23.50" maxSpeed="1.39"/>
        <ride waitingTime="251.00" vehicle="bus_22:0.2" depart="602.00" arrival="736.00" arrivalPos="10.35" duration="134.00" routeLength="497.63" timeLoss="12.63"/>
    </personinfo>
    <personinfo id="410460005.22.657" depart="657.00" type="DEFAULT_PEDTYPE">
        <walk depart="657.00" departPos="286.81" arrival="887.00" arrivalPos="0.00" duration="230.00" routeLength="286.81" timeLoss="23.50" maxSpeed="1.39"/>
        <ride waitingTime="15.00" vehicle="bus_22:0.3" depart="902.00" arrival="1188.00" arrivalPos="34.17" duration="286.00" routeLength="1075.60" timeLoss="23.66"/>
    </personinfo>
    <personinfo id="410462266.43.743" depart="743.00" type="DEFAULT_PEDTYPE">
        <walk depart="743.00" departPos="50.19" arrival="744.00" arrivalPos="51.19" duration="1.00" routeLength="1.00" timeLoss="0.28" maxSpeed="1.39"/>
        <ride waitingTime="494.00" vehicle="bus_43:0.0" depart="1238.00" arrival="1272.00" arrivalPos="21.45" duration="34.00" routeLength="109.88" timeLoss="6.22"/>
    </personinfo>
    <personinfo id="410460005.22.777" depart="777.00" type="DEFAULT_PEDTYPE">
        <walk depart="777.00" departPos="286.81" arrival="1006.00" arrivalPos="0.00" duration="229.00" routeLength="286.81" timeLoss="22.50" maxSpeed="1.39"/>
        <ride waitingTime="196.00" vehicle="bus_22:0.4" depart="1202.00" arrival="1336.00" arrivalPos="10.35" duration="134.00" routeLength="497.63" timeLoss="12.64"/>
    </personinfo>
    <personinfo id="410462293.43.880" depart="880.00" type="DEFAULT_PEDTYPE">
        <walk depart="880.00" departPos="10.48" arrival="881.00" arrivalPos="11.48" duration="1.00" routeLength="1.00" timeLoss="0.28" maxSpeed="1.39"/>
        <ride waitingTime="393.00" vehicle="bus_43:0.0" depart="1274.00" arrival="1475.00" arrivalPos="10.13" duration="201.00" routeLength="747.21" timeLoss="17.78"/>
    </personinfo>
    <personinfo id="410459897.22.838" depart="838.00" type="DEFAULT_PEDTYPE">
        <walk depart="838.00" departPos="23.17" arrival="839.00" arrivalPos="24.17" duration="1.00" routeLength="1.00" timeLoss="0.28" maxSpeed="1.39"/>
        <ride waitingTime="53.00" vehicle="bus_22:0.2" depart="892.00" arrival="1578.00" arrivalPos="22.42" duration="686.00" routeLength="2578.41" timeLoss="56.15"/>
    </personinfo>
    <personinfo id="1531005322.22.333" depart="333.00" type="DEFAULT_PEDTYPE">
        <walk depart="333.00" departPos="12.13" arrival="334.00" arrivalPos="13.13" duration="1.00" routeLength="1.00" timeLoss="0.28" maxSpeed="1.39"/>
        <ride waitingTime="992.00" vehicle="bus_22:0.0" depart="1326.00" arrival="1687.00" arrivalPos="14.16" duration="361.00" routeLength="1316.86" timeLoss="36.86"/>
    </personinfo>
    <personinfo id="410482520.22.1389" depart="1389.00" type="DEFAULT_PEDTYPE">
        <walk depart="1389.00" departPos="2.85" arrival="1390.00" arrivalPos="3.85" duration="1.00" routeLength="1.00" timeLoss="0.28" maxSpeed="1.39"/>
        <ride waitingTime="92.00" vehicle="bus_22:0.0" depart="1482.00" arrival="1687.00" arrivalPos="14.16" duration="205.00" routeLength="756.34" timeLoss="20.54"/>
    </personinfo>
    <personinfo id="410462103.22.1067" depart="1067.00" type="DEFAULT_PEDTYPE">
        <walk depart="1067.00" departPos="51.46" arrival="1068.00" arrivalPos="52.46" duration="1.00" routeLength="1.00" timeLoss="0.28" maxSpeed="1.39"/>
        <ride waitingTime="219.00" vehicle="bus_22:0.1" depart="1287.00" arrival="1785.00" arrivalPos="176.36" duration="498.00" routeLength="1357.77" timeLoss="165.86"/>
    </personinfo>
    <personinfo id="410486991.43.10" depart="10.00" type="DEFAULT_PEDTYPE">
        <walk depart="10.00" departPos="194.33" arrival="11.00" arrivalPos="195.33" duration="1.00" routeLength="1.00" timeLoss="0.28" maxSpeed="1.39"/>
        <ride waitingTime="1662.00" vehicle="bus_43:0.0" depart="1673.00" arrival="1798.00" arrivalPos="60.88" duration="125.00" routeLength="459.00" timeLoss="12.07"/>
    </personinfo>
    <personinfo id="410462103.22.522" depart="522.00" type="DEFAULT_PEDTYPE">
        <walk depart="522.00" departPos="51.46" arrival="523.00" arrivalPos="52.46" duration="1.00" routeLength="1.00" timeLoss="0.28" maxSpeed="1.39"/>
        <ride waitingTime="452.00" vehicle="bus_22:0.0" depart="975.00" arrival="1807.00" arrivalPos="83.09" duration="832.00" routeLength="2798.49" timeLoss="142.50"/>
    </personinfo>
    <personinfo id="410459904.22.1738" depart="1738.00" type="DEFAULT_PEDTYPE">
        <walk depart="1738.00" departPos="19.22" arrival="1739.00" arrivalPos="20.22" duration="1.00" routeLength="1.00" timeLoss="0.28" maxSpeed="1.39"/>
        <ride waitingTime="73.00" vehicle="bus_22:0.5" depart="1812.00" arrival="1929.00" arrivalPos="48.67" duration="117.00" routeLength="431.04" timeLoss="11.89"/>
    </personinfo>
    <personinfo id="410462101.22.1453" depart="1453.00" type="DEFAULT_PEDTYPE">
        <walk depart="1453.00" departPos="11.46" arrival="1454.00" arrivalPos="12.46" duration="1.00" routeLength="1.00" timeLoss="0.28" maxSpeed="1.39"/>
        <ride waitingTime="125.00" vehicle="bus_22:0.2" depart="1579.00" arrival="1946.00" arrivalPos="24.58" duration="367.00" routeLength="1082.26" timeLoss="103.05"/>
    </personinfo>
    <personinfo id="410486955.43.241" depart="241.00" type="DEFAULT_PEDTYPE">
        <walk depart="241.00" departPos="49.88" arrival="242.00" arrivalPos="50.88" duration="1.00" routeLength="1.00" timeLoss="0.28" maxSpeed="1.39"/>
        <ride waitingTime="1557.00" vehicle="bus_43:0.0" depart="1799.00" arrival="1981.00" arrivalPos="11.11" duration="182.00" routeLength="658.08" timeLoss="19.51"/>
    </personinfo>
    <personinfo id="1531005322.22.1237" depart="1237.00" type="DEFAULT_PEDTYPE">
        <walk depart="1237.00" departPos="12.13" arrival="1238.00" arrivalPos="13.13" duration="1.00" routeLength="1.00" timeLoss="0.28" maxSpeed="1.39"/>
        <ride waitingTime="88.00" vehicle="bus_22:0.0" depart="1326.00" arrival="2058.00" arrivalPos="102.55" duration="732.00" routeLength="2668.67" timeLoss="73.16"/>
    </personinfo>
    <personinfo id="410486991.43.1625" depart="1625.00" type="DEFAULT_PEDTYPE">
        <walk depart="1625.00" departPos="194.33" arrival="1626.00" arrivalPos="195.33" duration="1.00" routeLength="1.00" timeLoss="0.28" maxSpeed="1.39"/>
        <ride waitingTime="47.00" vehicle="bus_43:0.0" depart="1673.00" arrival="2099.00" arrivalPos="40.58" duration="426.00" routeLength="1549.57" timeLoss="43.08"/>
    </personinfo>
    <personinfo id="1849631269.43.808" depart="808.00" type="DEFAULT_PEDTYPE">
        <walk depart="808.00" departPos="160.44" arrival="936.00" arrivalPos="0.00" duration="128.00" routeLength="160.44" timeLoss="12.48" maxSpeed="1.39"/>
        <ride waitingTime="183.00" vehicle="bus_43:0.1" depart="1119.00" arrival="2103.00" arrivalPos="60.88" duration="984.00" routeLength="3643.60" timeLoss="90.36"/>
    </personinfo>
    <personinfo id="1531005322.43.1232" depart="1232.00" type="DEFAULT_PEDTYPE">
        <walk depart="1232.00" departPos="12.13" arrival="1233.00" arrivalPos="13.13" duration="1.00" routeLength="1.00" timeLoss="0.28" maxSpeed="1.39"/>
        <ride waitingTime="93.00" vehicle="bus_22:0.0" depart="1326.00" arrival="2104.00" arrivalPos="258.30" duration="778.00" routeLength="2824.48" timeLoss="80.18"/>
    </personinfo>
    <personinfo id="410486991.43.1003" depart="1003.00" type="DEFAULT_PEDTYPE">
        <walk depart="1003.00" departPos="194.33" arrival="1004.00" arrivalPos="195.33" duration="1.00" routeLength="1.00" timeLoss="0.28" maxSpeed="1.39"/>
        <ride waitingTime="669.00" vehicle="bus_43:0.0" depart="1673.00" arrival="2165.00" arrivalPos="108.29" duration="492.00" routeLength="1791.56" timeLoss="49.07"/>
    </personinfo>
    <personinfo id="410459901.22.651" depart="651.00" type="DEFAULT_PEDTYPE">
        <walk depart="651.00" departPos="553.15" arrival="1093.00" arrivalPos="0.00" duration="442.00" routeLength="553.15" timeLoss="43.73" maxSpeed="1.39"/>
        <ride waitingTime="244.00" vehicle="bus_22:0.4" depart="1337.00" arrival="2183.00" arrivalPos="62.46" duration="846.00" routeLength="3196.42" timeLoss="66.40"/>
    </personinfo>
    <personinfo id="410482564.43.1201" depart="1201.00" type="DEFAULT_PEDTYPE">
        <walk depart="1201.00" departPos="87.68" arrival="1202.00" arrivalPos="88.68" duration="1.00" routeLength="1.00" timeLoss="0.28" maxSpeed="1.39"/>
        <ride waitingTime="782.00" vehicle="bus_22:0.0" depart="1984.00" arrival="2191.00" arrivalPos="10.11" duration="207.00" routeLength="741.79" timeLoss="24.11"/>
    </personinfo>
    <personinfo id="410459904.22.854" depart="854.00" type="DEFAULT_PEDTYPE">
        <walk depart="854.00" departPos="19.22" arrival="855.00" arrivalPos="20.22" duration="1.00" routeLength="1.00" timeLoss="0.28" maxSpeed="1.39"/>
        <ride waitingTime="64.00" vehicle="bus_22:0.2" depart="919.00" arrival="2301.00" arrivalPos="14.17" duration="1382.00" routeLength="4885.93" timeLoss="187.36"/>
    </personinfo>
    <personinfo id="410459651.22.1509" depart="1509.00" type="DEFAULT_PEDTYPE">
        <walk depart="1509.00" departPos="15.18" arrival="1510.00" arrivalPos="16.18" duration="1.00" routeLength="1.00" timeLoss="0.28" maxSpeed="1.39"/>
        <ride waitingTime="12.00" vehicle="bus_22:0.3" depart="1522.00" arrival="2413.00" arrivalPos="13.85" duration="891.00" routeLength="2973.23" timeLoss="164.85"/>
    </personinfo>
    <personinfo id="410482564.22.459" depart="459.00" type="DEFAULT_PEDTYPE">
        <walk depart="459.00" departPos="87.68" arrival="460.00" arrivalPos="88.68" duration="1.00" routeLength="1.00" timeLoss="0.28" maxSpeed="1.39"/>
        <ride waitingTime="1524.00" vehicle="bus_22:0.0" depart="1984.00" arrival="2431.00" arrivalPos="20.97" duration="447.00" routeLength="1625.02" timeLoss="46.70"/>
    </personinfo>
    <personinfo id="410459897.22.696" depart="696.00" type="DEFAULT_PEDTYPE">
        <walk depart="696.00" departPos="23.17" arrival="697.00" arrivalPos="24.17" duration="1.00" routeLength="1.00" timeLoss="0.28" maxSpeed="1.39"/>
        <ride waitingTime="195.00" vehicle="bus_22:0.2" depart="892.00" arrival="2440.00" arrivalPos="159.77" duration="1548.00" routeLength="5493.58" timeLoss="203.18"/>
    </personinfo>
    <personinfo id="410462101.22.1040" depart="1040.00" type="DEFAULT_PEDTYPE">
        <walk depart="1040.00" departPos="11.46" arrival="1041.00" arrivalPos="12.46" duration="1.00" routeLength="1.00" timeLoss="0.28" maxSpeed="1.39"/>
        <ride waitingTime="231.00" vehicle="bus_22:0.1" depart="1272.00" arrival="2452.00" arrivalPos="258.29" duration="1180.00" routeLength="3906.65" timeLoss="223.21"/>
    </personinfo>
    <personinfo id="410462103.22.472" depart="472.00" type="DEFAULT_PEDTYPE">
        <walk depart="472.00" departPos="51.46" arrival="473.00" arrivalPos="52.46" duration="1.00" routeLength="1.00" timeLoss="0.28" maxSpeed="1.39"/>
        <ride waitingTime="502.00" vehicle="bus_22:0.0" depart="975.00" arrival="2528.00" arrivalPos="195.17" duration="1553.00" routeLength="5419.54" timeLoss="215.27"/>
    </personinfo>
    <personinfo id="410480716.22.1404" depart="1404.00" type="DEFAULT_PEDTYPE">
        <walk depart="1404.00" departPos="9.98" arrival="1405.00" arrivalPos="10.98" duration="1.00" routeLength="1.00" timeLoss="0.28" maxSpeed="1.39"/>
        <ride waitingTime="1028.00" vehicle="bus_22:0.0" depart="2433.00" arrival="2528.00" arrivalPos="195.17" duration="95.00" routeLength="348.33" timeLoss="10.05"/>
    </personinfo>
    <personinfo id="410475114.22.1421" depart="1421.00" type="DEFAULT_PEDTYPE">
        <walk depart="1421.00" departPos="84.99" arrival="1422.00" arrivalPos="85.99" duration="1.00" routeLength="1.00" timeLoss="0.28" maxSpeed="1.39"/>
        <ride waitingTime="142.00" vehicle="bus_22:0.1" depart="1564.00" arrival="2636.00" arrivalPos="29.18" duration="1072.00" routeLength="3818.17" timeLoss="137.79"/>
    </personinfo>
    <personinfo id="410462293.43.1686" depart="1686.00" type="DEFAULT_PEDTYPE">
        <walk depart="1686.00" departPos="10.48" arrival="1687.00" arrivalPos="11.48" duration="1.00" routeLength="1.00" timeLoss="0.28" maxSpeed="1.39"/>
        <ride waitingTime="185.00" vehicle="bus_43:0.2" depart="1872.00" arrival="2689.00" arrivalPos="40.57" duration="817.00" routeLength="3026.70" timeLoss="72.87"/>
    </personinfo>
    <personinfo id="410482520.43.1704" depart="1704.00" type="DEFAULT_PEDTYPE">
        <walk depart="1704.00" departPos="2.85" arrival="1705.00" arrivalPos="3.85" duration="1.00" routeLength="1.00" timeLoss="0.28" maxSpeed="1.39"/>
        <ride waitingTime="393.00" vehicle="bus_22:0.2" depart="2098.00" arrival="2704.00" arrivalPos="258.30" duration="606.00" routeLength="2264.04" timeLoss="51.84"/>
    </personinfo>
    <personinfo id="410483103.22.243" depart="243.00" type="DEFAULT_PEDTYPE">
        <walk depart="243.00" departPos="165.36" arrival="244.00" arrivalPos="166.36" duration="1.00" routeLength="1.00" timeLoss="0.28" maxSpeed="1.39"/>
        <ride waitingTime="1169.00" vehicle="bus_22:0.0" depart="1413.00" arrival="2720.00" arrivalPos="37.12" duration="1307.00" routeLength="4773.62" timeLoss="127.80"/>
    </personinfo>
    <personinfo id="410471030.22.2199" depart="2199.00" type="DEFAULT_PEDTYPE">
        <walk depart="2199.00" departPos="18.18" arrival="2200.00" arrivalPos="19.18" duration="1.00" routeLength="1.00" timeLoss="0.28" maxSpeed="1.39"/>
        <ride waitingTime="89.00" vehicle="bus_22:0.0" depart="2289.00" arrival="2720.00" arrivalPos="37.12" duration="431.00" routeLength="1591.21" timeLoss="38.92"/>
    </personinfo>
    <personinfo id="1849631331.43.376" depart="376.00" type="DEFAULT_PEDTYPE">
        <walk depart="376.00" departPos="42.45" arrival="377.00" arrivalPos="43.45" duration="1.00" routeLength="1.00" timeLoss="0.28" maxSpeed="1.39"/>
        <ride waitingTime="182.00" vehicle="bus_43:0.1" depart="559.00" arrival="2754.00" arrivalPos="95.98" duration="2195.00" routeLength="7973.83" timeLoss="242.25"/>
    </personinfo>
    <personinfo id="410462291.43.1490" depart="1490.00" type="DEFAULT_PEDTYPE">
        <walk depart="1490.00" departPos="415.85" arrival="1823.00" arrivalPos="0.00" duration="333.00" routeLength="415.85" timeLoss="33.59" maxSpeed="1.39"/>
        <ride waitingTime="256.00" vehicle="bus_43:0.2" depart="2079.00" arrival="2761.00" arrivalPos="108.28" duration="682.00" routeLength="2521.44" timeLoss="63.08"/>
    </personinfo>
    <personinfo id="410459901.22.1284" depart="1284.00" type="DEFAULT_PEDTYPE">
        <walk depart="1284.00" departPos="553.15" arrival="1726.00" arrivalPos="0.00" duration="442.00" routeLength="553.15" timeLoss="43.73" maxSpeed="1.39"/>
        <ride waitingTime="210.00" vehicle="bus_22:0.6" depart="1936.00" arrival="2771.00" arrivalPos="22.45" duration="835.00" routeLength="3156.40" timeLoss="64.16"/>
    </personinfo>
    <personinfo id="410482520.22.1412" depart="1412.00" type="DEFAULT_PEDTYPE">
        <walk depart="1412.00" departPos="2.85" arrival="1413.00" arrivalPos="3.85" duration="1.00" routeLength="1.00" timeLoss="0.28" maxSpeed="1.39"/>
        <ride waitingTime="69.00" vehicle="bus_22:0.0" depart="1482.00" arrival="2806.00" arrivalPos="34.62" duration="1324.00" routeLength="4840.38" timeLoss="128.52"/>
    </personinfo>
    <personinfo id="410462293.43.1530" depart="1530.00" type="DEFAULT_PEDTYPE">
        <walk depart="1530.00" departPos="10.48" arrival="1531.00" arrivalPos="11.48" duration="1.00" routeLength="1.00" timeLoss="0.28" maxSpeed="1.39"/>
        <ride waitingTime="45.00" vehicle="bus_43:0.1" depart="1576.00" arrival="2843.00" arrivalPos="24.59" duration="1267.00" routeLength="4471.52" timeLoss="170.45"/>
    </personinfo>
    <personinfo id="410482570.22.2161" depart="2161.00" type="DEFAULT_PEDTYPE">
        <walk depart="2161.00" departPos="91.56" arrival="2162.00" arrivalPos="92.56" duration="1.00" routeLength="1.00" timeLoss="0.28" maxSpeed="1.39"/>
        <ride waitingTime="246.00" vehicle="bus_22:0.1" depart="2408.00" arrival="2906.00" arrivalPos="323.22" duration="498.00" routeLength="1836.73" timeLoss="48.06"/>
    </personinfo>
    <personinfo id="410482520.22.361" depart="361.00" type="DEFAULT_PEDTYPE">
        <walk depart="361.00" departPos="2.85" arrival="362.00" arrivalPos="3.85" duration="1.00" routeLength="1.00" timeLoss="0.28" maxSpeed="1.39"/>
        <ride waitingTime="1120.00" vehicle="bus_22:0.0" depart="1482.00" arrival="2915.00" arrivalPos="39.39" duration="1433.00" routeLength="5230.73" timeLoss="140.32"/>
    </personinfo>
    <personinfo id="410471030.22.2175" depart="2175.00" type="DEFAULT_PEDTYPE">
        <walk depart="2175.00" departPos="18.18" arrival="2176.00" arrivalPos="19.18" duration="1.00" routeLength="1.00" timeLoss="0.28" maxSpeed="1.39"/>
        <ride waitingTime="113.00" vehicle="bus_22:0.0" depart="2289.00" arrival="2916.00" arrivalPos="39.39" duration="627.00" routeLength="2293.31" timeLoss="58.69"/>
    </personinfo>
    <personinfo id="410462291.43.811" depart="811.00" type="DEFAULT_PEDTYPE">
        <walk depart="811.00" departPos="415.85" arrival="1143.00" arrivalPos="0.00" duration="332.00" routeLength="415.85" timeLoss="32.59" maxSpeed="1.39"/>
        <ride waitingTime="333.00" vehicle="bus_43:0.0" depart="1476.00" arrival="2957.00" arrivalPos="31.74" duration="1481.00" routeLength="4845.23" timeLoss="284.32"/>
    </personinfo>
    <personinfo id="410462291.43.1882" depart="1882.00" type="DEFAULT_PEDTYPE">
        <walk depart="1882.00" departPos="415.85" arrival="2216.00" arrivalPos="0.00" duration="334.00" routeLength="415.85" timeLoss="34.59" maxSpeed="1.39"/>
        <ride waitingTime="149.00" vehicle="bus_43:0.3" depart="2365.00" arrival="2980.00" arrivalPos="40.58" duration="615.00" routeLength="2279.44" timeLoss="55.07"/>
    </personinfo>
    <personinfo id="410486991.43.2431" depart="2431.00" type="DEFAULT_PEDTYPE">
        <walk depart="2431.00" departPos="194.33" arrival="2432.00" arrivalPos="195.33" duration="1.00" routeLength="1.00" timeLoss="0.28" maxSpeed="1.39"/>
        <ride waitingTime="131.00" vehicle="bus_43:0.3" depart="2563.00" arrival="2980.00" arrivalPos="40.58" duration="417.00" routeLength="1549.53" timeLoss="37.09"/>
    </personinfo>
    <personinfo id="410464248.22.2651" depart="2651.00" type="DEFAULT_PEDTYPE">
        <walk depart="2651.00" departPos="23.64" arrival="2652.00" arrivalPos="24.64" duration="1.00" routeLength="1.00" timeLoss="0.28" maxSpeed="1.39"/>
        <ride waitingTime="156.00" vehicle="bus_22:0.0" depart="2808.00" arrival="3027.00" arrivalPos="32.69" duration="219.00" routeLength="785.71" timeLoss="22.39"/>
    </personinfo>
    <personinfo id="410464248.22.2738" depart="2738.00" type="DEFAULT_PEDTYPE">
        <walk depart="2738.00" departPos="23.64" arrival="2739.00" arrivalPos="24.64" duration="1.00" routeLength="1.00" timeLoss="0.28" maxSpeed="1.39"/>
        <ride waitingTime="69.00" vehicle="bus_22:0.0" depart="2808.00" arrival="3027.00" arrivalPos="32.69" duration="219.00" routeLength="785.71" timeLoss="22.39"/>
    </personinfo>
    <personinfo id="2429952037.43.2121" depart="2121.00" type="DEFAULT_PEDTYPE">
        <walk depart="2121.00" departPos="506.84" arrival="2528.00" arrivalPos="0.00" duration="407.00" routeLength="506.84" timeLoss="42.08" maxSpeed="1.39"/>
        <ride waitingTime="159.00" vehicle="bus_43:0.6" depart="2687.00" arrival="3043.00" arrivalPos="61.18" duration="356.00" routeLength="1341.57" timeLoss="28.80"/>
    </personinfo>
    <personinfo id="410462293.43.1997" depart="1997.00" type="DEFAULT_PEDTYPE">
        <walk depart="1997.00" departPos="10.48" arrival="1998.00" arrivalPos="11.48" duration="1.00" routeLength="1.00" timeLoss="0.28" maxSpeed="1.39"/>
        <ride waitingTime="165.00" vehicle="bus_43:0.3" depart="2163.00" arrival="3053.00" arrivalPos="108.28" duration="890.00" routeLength="3268.65" timeLoss="83.83"/>
    </personinfo>
    <personinfo id="1849631269.43.64" depart="64.00" type="DEFAULT_PEDTYPE">
        <walk depart="64.00" departPos="160.44" arrival="193.00" arrivalPos="0.00" duration="129.00" routeLength="160.44" timeLoss="13.48" maxSpeed="1.39"/>
        <ride waitingTime="620.00" vehicle="bus_43:0.0" depart="813.00" arrival="3129.00" arrivalPos="83.07" duration="2316.00" routeLength="7935.25" timeLoss="358.70"/>
    </personinfo>
    <personinfo id="410486991.43.1504" depart="1504.00" type="DEFAULT_PEDTYPE">
        <walk depart="1504.00" departPos="194.33" arrival="1505.00" arrivalPos="195.33" duration="1.00" routeLength="1.00" timeLoss="0.28" maxSpeed="1.39"/>
        <ride waitingTime="168.00" vehicle="bus_43:0.0" depart="1673.00" arrival="3129.00" arrivalPos="83.07" duration="1456.00" routeLength="4750.70" timeLoss="283.37"/>
    </personinfo>
    <personinfo id="1849631269.43.799" depart="799.00" type="DEFAULT_PEDTYPE">
        <walk depart="799.00" departPos="160.44" arrival="928.00" arrivalPos="0.00" duration="129.00" routeLength="160.44" timeLoss="13.48" maxSpeed="1.39"/>
        <ride waitingTime="191.00" vehicle="bus_43:0.1" depart="1119.00" arrival="3147.00" arrivalPos="31.74" duration="2028.00" routeLength="7299.90" timeLoss="237.63"/>
    </personinfo>
    <personinfo id="410482520.43.2807" depart="2807.00" type="DEFAULT_PEDTYPE">
        <walk depart="2807.00" departPos="2.85" arrival="2808.00" arrivalPos="3.85" duration="1.00" routeLength="1.00" timeLoss="0.28" maxSpeed="1.39"/>
        <ride waitingTime="188.00" vehicle="bus_43:0.1" depart="2996.00" arrival="3147.00" arrivalPos="31.74" duration="151.00" routeLength="560.41" timeLoss="14.33"/>
    </personinfo>
    <personinfo id="1531005322.22.727" depart="727.00" type="DEFAULT_PEDTYPE">
        <walk depart="727.00" departPos="12.13" arrival="728.00" arrivalPos="13.13" duration="1.00" routeLength="1.00" timeLoss="0.28" maxSpeed="1.39"/>
        <ride waitingTime="598.00" vehicle="bus_22:0.0" depart="1326.00" arrival="3163.00" arrivalPos="10.73" duration="1837.00" routeLength="6665.64" timeLoss="179.37"/>
    </personinfo>
    <personinfo id="410465917.22.2279" depart="2279.00" type="DEFAULT_PEDTYPE">
        <walk depart="2279.00" departPos="21.70" arrival="2280.00" arrivalPos="22.70" duration="1.00" routeLength="1.00" timeLoss="0.28" maxSpeed="1.39"/>
        <ride waitingTime="749.00" vehicle="bus_22:0.0" depart="3029.00" arrival="3163.00" arrivalPos="10.73" duration="134.00" routeLength="479.09" timeLoss="12.15"/>
    </personinfo>
    <personinfo id="410462101.22.2339" depart="2339.00" type="DEFAULT_PEDTYPE">
        <walk depart="2339.00" departPos="11.46" arrival="2340.00" arrivalPos="12.46" duration="1.00" routeLength="1.00" timeLoss="0.28" maxSpeed="1.39"/>
        <ride waitingTime="139.00" vehicle="bus_22:0.5" depart="2479.00" arrival="3179.00" arrivalPos="14.15" duration="700.00" routeLength="2398.99" timeLoss="113.91"/>
    </personinfo>
    <personinfo id="410462211.43.1672" depart="1672.00" type="DEFAULT_PEDTYPE">
        <walk depart="1672.00" departPos="18.63" arrival="1673.00" arrivalPos="19.63" duration="1.00" routeLength="1.00" timeLoss="0.28" maxSpeed="1.39"/>
        <ride waitingTime="20.00" vehicle="bus_43:0.1" depart="1693.00" arrival="3204.00" arrivalPos="14.15" duration="1511.00" routeLength="5363.09" timeLoss="194.01"/>
    </personinfo>
    <personinfo id="410462103.22.2605" depart="2605.00" type="DEFAULT_PEDTYPE">
        <walk depart="2605.00" departPos="51.46" arrival="2606.00" arrivalPos="52.46" duration="1.00" routeLength="1.00" timeLoss="0.28" maxSpeed="1.39"/>
        <ride waitingTime="182.00" vehicle="bus_22:0.6" depart="2788.00" arrival="3207.00" arrivalPos="24.59" duration="419.00" routeLength="1042.21" timeLoss="164.81"/>
    </personinfo>
    <personinfo id="410482520.22.2692" depart="2692.00" type="DEFAULT_PEDTYPE">
        <walk depart="2692.00" departPos="2.85" arrival="2693.00" arrivalPos="3.85" duration="1.00" routeLength="1.00" timeLoss="0.28" maxSpeed="1.39"/>
        <ride waitingTime="101.00" vehicle="bus_22:0.4" depart="2794.00" arrival="3286.00" arrivalPos="98.67" duration="492.00" routeLength="1843.60" timeLoss="41.37"/>
    </personinfo>
    <personinfo id="410482564.22.129" depart="129.00" type="DEFAULT_PEDTYPE">
        <walk depart="129.00" departPos="87.68" arrival="130.00" arrivalPos="88.68" duration="1.00" routeLength="1.00" timeLoss="0.28" maxSpeed="1.39"/>
        <ride waitingTime="1854.00" vehicle="bus_22:0.0" depart="1984.00" arrival="3289.00" arrivalPos="10.27" duration="1305.00" routeLength="4719.34" timeLoss="127.03"/>
    </personinfo>
    <personinfo id="410480716.22.2272" depart="2272.00" type="DEFAULT_PEDTYPE">
        <walk depart="2272.00" departPos="9.98" arrival="2273.00" arrivalPos="10.98" duration="1.00" routeLength="1.00" timeLoss="0.28" maxSpeed="1.39"/>
        <ride waitingTime="160.00" vehicle="bus_22:0.0" depart="2433.00" arrival="3290.00" arrivalPos="10.27" duration="857.00" routeLength="3094.34" timeLoss="80.34"/>
    </personinfo>
    <personinfo id="410465916.22.1555" depart="1555.00" type="DEFAULT_PEDTYPE">
        <walk depart="1555.00" departPos="28.40" arrival="1556.00" arrivalPos="29.40" duration="1.00" routeLength="1.00" timeLoss="0.28" maxSpeed="1.39"/>
        <ride waitingTime="1361.00" vehicle="bus_22:0.0" depart="2917.00" arrival="3290.00" arrivalPos="10.27" duration="373.00" routeLength="1332.15" timeLoss="34.10"/>
    </personinfo>
    <personinfo id="410465915.22.603" depart="603.00" type="DEFAULT_PEDTYPE">
        <walk depart="603.00" departPos="138.08" arrival="713.00" arrivalPos="0.00" duration="110.00" routeLength="138.08" timeLoss="10.58" maxSpeed="1.39"/>
        <ride waitingTime="2452.00" vehicle="bus_22:0.0" depart="3165.00" arrival="3291.00" arrivalPos="10.27" duration="126.00" routeLength="457.75" timeLoss="11.36"/>
    </personinfo>
    <personinfo id="410465915.22.1395" depart="1395.00" type="DEFAULT_PEDTYPE">
        <walk depart="1395.00" departPos="138.08" arrival="1506.00" arrivalPos="0.00" duration="111.00" routeLength="138.08" timeLoss="11.58" maxSpeed="1.39"/>
        <ride waitingTime="1659.00" vehicle="bus_22:0.0" depart="3165.00" arrival="3291.00" arrivalPos="10.27" duration="126.00" routeLength="457.74" timeLoss="11.36"/>
    </personinfo>
    <personinfo id="410482572.43.819" depart="819.00" type="DEFAULT_PEDTYPE">
        <walk depart="819.00" departPos="20.76" arrival="820.00" arrivalPos="21.76" duration="1.00" routeLength="1.00" timeLoss="0.28" maxSpeed="1.39"/>
        <ride waitingTime="2138.00" vehicle="bus_43:0.0" depart="2958.00" arrival="3304.00" arrivalPos="98.67" duration="346.00" routeLength="1283.18" timeLoss="31.05"/>
    </personinfo>
    <personinfo id="410462103.22.2199" depart="2199.00" type="DEFAULT_PEDTYPE">
        <walk depart="2199.00" departPos="51.46" arrival="2200.00" arrivalPos="52.46" duration="1.00" routeLength="1.00" timeLoss="0.28" maxSpeed="1.39"/>
        <ride waitingTime="293.00" vehicle="bus_22:0.5" depart="2493.00" arrival="3318.00" arrivalPos="159.78" duration="825.00" routeLength="2875.23" timeLoss="122.76"/>
    </personinfo>
    <personinfo id="410459904.22.2999" depart="2999.00" type="DEFAULT_PEDTYPE">
        <walk depart="2999.00" departPos="19.22" arrival="3000.00" arrivalPos="20.22" duration="1.00" routeLength="1.00" timeLoss="0.28" maxSpeed="1.39"/>
        <ride waitingTime="18.00" vehicle="bus_22:0.9" depart="3018.00" arrival="3326.00" arrivalPos="26.18" duration="308.00" routeLength="1156.38" timeLoss="25.96"/>
    </personinfo>
    <personinfo id="1847853709.43.2075" depart="2075.00" type="DEFAULT_PEDTYPE">
        <walk depart="2075.00" departPos="16.23" arrival="2076.00" arrivalPos="17.23" duration="1.00" routeLength="1.00" timeLoss="0.28" maxSpeed="1.39"/>
        <ride waitingTime="86.00" vehicle="bus_43:0.7" depart="2162.00" arrival="3340.00" arrivalPos="61.19" duration="1178.00" routeLength="4458.64" timeLoss="88.55"/>
    </personinfo>
    <personinfo id="410462101.22.2706" depart="2706.00" type="DEFAULT_PEDTYPE">
        <walk depart="2706.00" departPos="11.46" arrival="2707.00" arrivalPos="12.46" duration="1.00" routeLength="1.00" timeLoss="0.28" maxSpeed="1.39"/>
        <ride waitingTime="65.00" vehicle="bus_22:0.6" depart="2772.00" arrival="3358.00" arrivalPos="13.84" duration="586.00" routeLength="1642.67" timeLoss="182.38"/>
    </personinfo>
    <personinfo id="410486966.43.2558" depart="2558.00" type="DEFAULT_PEDTYPE">
        <walk depart="2558.00" departPos="57.30" arrival="2559.00" arrivalPos="58.30" duration="1.00" routeLength="1.00" timeLoss="0.28" maxSpeed="1.39"/>
        <ride waitingTime="188.00" vehicle="bus_43:0.2" depart="2747.00" arrival="3367.00" arrivalPos="13.85" duration="620.00" routeLength="1803.35" timeLoss="177.21"/>