<?xml version="1.0" encoding="UTF-8"?>

<!-- generated on 2024-04-11 23:06:28 by Eclipse SUMO GUI Version 1.14.1
<configuration xmlns:xsi="http://www.w3.org/2001/XMLSchema-instance" xsi:noNamespaceSchemaLocation="http://sumo.dlr.de/xsd/sumoConfiguration.xsd">

    <input>
        <net-file value="singapore/singapore.net.xml"/>
        <route-files value="singapore/busFlows.rou.xml"/>
        <additional-files value="singapore/busstops.xml"/>
    </input>

    <output>
        <tripinfo-output value="tripinfo.xml"/>
    </output>

    <processing>
        <no-internal-links value="true"/>
    </processing>

    <traci_server>
        <remote-port value="54468"/>
    </traci_server>

</configuration>
-->

<tripinfos xmlns:xsi="http://www.w3.org/2001/XMLSchema-instance" xsi:noNamespaceSchemaLocation="http://sumo.dlr.de/xsd/tripinfo_file.xsd">
    <personinfo id="410462291.43.1100" depart="1100.00" type="DEFAULT_PEDTYPE">
        <walk depart="1100.00" departPos="415.85" arrival="1433.00" arrivalPos="0.00" duration="333.00" routeLength="415.85" timeLoss="33.59" maxSpeed="1.39"/>
        <ride waitingTime="40.00" vehicle="bus_43:0.0" depart="1473.00" arrival="1672.00" arrivalPos="205.29" duration="199.00" routeLength="729.93" timeLoss="16.99"/>
    </personinfo>
    <personinfo id="410462101.22.229" depart="229.00" type="DEFAULT_PEDTYPE">
        <walk depart="229.00" departPos="11.46" arrival="230.00" arrivalPos="12.46" duration="1.00" routeLength="1.00" timeLoss="0.28" maxSpeed="1.39"/>
        <ride waitingTime="742.00" vehicle="bus_22:0.0" depart="972.00" arrival="1750.00" arrivalPos="83.10" duration="778.00" routeLength="2838.52" timeLoss="78.73"/>
    </personinfo>
    <personinfo id="410483103.22.1260" depart="1260.00" type="DEFAULT_PEDTYPE">
        <walk depart="1260.00" departPos="165.36" arrival="1261.00" arrivalPos="166.36" duration="1.00" routeLength="1.00" timeLoss="0.28" maxSpeed="1.39"/>
        <ride waitingTime="97.00" vehicle="bus_22:0.0" depart="1358.00" arrival="1750.00" arrivalPos="83.10" duration="392.00" routeLength="1440.79" timeLoss="37.60"/>
    </personinfo>
    <personinfo id="410459904.22.517" depart="517.00" type="DEFAULT_PEDTYPE">
        <walk depart="517.00" departPos="19.22" arrival="518.00" arrivalPos="20.22" duration="1.00" routeLength="1.00" timeLoss="0.28" maxSpeed="1.39"/>
        <ride waitingTime="399.00" vehicle="bus_22:0.1" depart="917.00" arrival="1779.00" arrivalPos="95.97" duration="862.00" routeLength="3248.76" timeLoss="68.63"/>
    </personinfo>
    <personinfo id="410462103.22.1205" depart="1205.00" type="DEFAULT_PEDTYPE">
        <walk depart="1205.00" departPos="51.46" arrival="1206.00" arrivalPos="52.46" duration="1.00" routeLength="1.00" timeLoss="0.28" maxSpeed="1.39"/>
        <ride waitingTime="379.00" vehicle="bus_22:0.1" depart="1585.00" arrival="1867.00" arrivalPos="24.59" duration="282.00" routeLength="1042.22" timeLoss="26.83"/>
    </personinfo>
    <personinfo id="410462293.43.111" depart="111.00" type="DEFAULT_PEDTYPE">
        <walk depart="111.00" departPos="10.48" arrival="112.00" arrivalPos="11.48" duration="1.00" routeLength="1.00" timeLoss="0.28" maxSpeed="1.39"/>
        <ride waitingTime="1155.00" vehicle="bus_43:0.0" depart="1267.00" arrival="1911.00" arrivalPos="29.61" duration="644.00" routeLength="2343.52" timeLoss="63.47"/>
    </personinfo>
    <personinfo id="410486991.43.625" depart="625.00" type="DEFAULT_PEDTYPE">
        <walk depart="625.00" departPos="194.33" arrival="626.00" arrivalPos="195.33" duration="1.00" routeLength="1.00" timeLoss="0.28" maxSpeed="1.39"/>
        <ride waitingTime="1048.00" vehicle="bus_43:0.0" depart="1674.00" arrival="1911.00" arrivalPos="29.61" duration="237.00" routeLength="866.40" timeLoss="24.71"/>
    </personinfo>
    <personinfo id="410475114.22.1335" depart="1335.00" type="DEFAULT_PEDTYPE">
        <walk depart="1335.00" departPos="84.99" arrival="1336.00" arrivalPos="85.99" duration="1.00" routeLength="1.00" timeLoss="0.28" maxSpeed="1.39"/>
        <ride waitingTime="444.00" vehicle="bus_22:0.1" depart="1780.00" arrival="2019.00" arrivalPos="13.85" duration="239.00" routeLength="880.79" timeLoss="23.19"/>
    </personinfo>
    <personinfo id="410459651.22.503" depart="503.00" type="DEFAULT_PEDTYPE">
        <walk depart="503.00" departPos="15.18" arrival="504.00" arrivalPos="16.18" duration="1.00" routeLength="1.00" timeLoss="0.28" maxSpeed="1.39"/>
        <ride waitingTime="115.00" vehicle="bus_22:0.0" depart="619.00" arrival="2036.00" arrivalPos="258.30" duration="1417.00" routeLength="5237.19" timeLoss="129.72"/>
    </personinfo>
    <personinfo id="410482520.22.1106" depart="1106.00" type="DEFAULT_PEDTYPE">
        <walk depart="1106.00" departPos="2.85" arrival="1107.00" arrivalPos="3.85" duration="1.00" routeLength="1.00" timeLoss="0.28" maxSpeed="1.39"/>
        <ride waitingTime="320.00" vehicle="bus_22:0.0" depart="1427.00" arrival="2036.00" arrivalPos="258.30" duration="609.00" routeLength="2263.97" timeLoss="53.84"/>
    </personinfo>
    <personinfo id="410460005.22.772" depart="772.00" type="DEFAULT_PEDTYPE">
        <walk depart="772.00" departPos="286.81" arrival="1002.00" arrivalPos="0.00" duration="230.00" routeLength="286.81" timeLoss="23.50" maxSpeed="1.39"/>
        <ride waitingTime="201.00" vehicle="bus_22:0.2" depart="1203.00" arrival="2053.00" arrivalPos="19.01" duration="850.00" routeLength="3152.41" timeLoss="77.19"/>
    </personinfo>
    <personinfo id="410462293.43.1552" depart="1552.00" type="DEFAULT_PEDTYPE">
        <walk depart="1552.00" departPos="10.48" arrival="1553.00" arrivalPos="11.48" duration="1.00" routeLength="1.00" timeLoss="0.28" maxSpeed="1.39"/>
        <ride waitingTime="337.00" vehicle="bus_43:0.1" depart="1890.00" arrival="2093.00" arrivalPos="10.16" duration="203.00" routeLength="747.20" timeLoss="18.78"/>
    </personinfo>
    <personinfo id="410482520.22.1418" depart="1418.00" type="DEFAULT_PEDTYPE">
        <walk depart="1418.00" departPos="2.85" arrival="1419.00" arrivalPos="3.85" duration="1.00" routeLength="1.00" timeLoss="0.28" maxSpeed="1.39"/>
        <ride waitingTime="8.00" vehicle="bus_22:0.0" depart="1427.00" arrival="2126.00" arrivalPos="10.12" duration="699.00" routeLength="2585.33" timeLoss="63.48"/>
    </personinfo>
    <personinfo id="410486991.43.61" depart="61.00" type="DEFAULT_PEDTYPE">
        <walk depart="61.00" departPos="194.33" arrival="62.00" arrivalPos="195.33" duration="1.00" routeLength="1.00" timeLoss="0.28" maxSpeed="1.39"/>
        <ride waitingTime="1612.00" vehicle="bus_43:0.0" depart="1674.00" arrival="2164.00" arrivalPos="108.29" duration="490.00" routeLength="1791.57" timeLoss="49.08"/>
    </personinfo>
    <personinfo id="410459901.22.785" depart="785.00" type="DEFAULT_PEDTYPE">
        <walk depart="785.00" departPos="553.15" arrival="1227.00" arrivalPos="0.00" duration="442.00" routeLength="553.15" timeLoss="43.73" maxSpeed="1.39"/>
        <ride waitingTime="111.00" vehicle="bus_22:0.2" depart="1338.00" arrival="2190.00" arrivalPos="22.46" duration="852.00" routeLength="3156.42" timeLoss="78.22"/>
    </personinfo>
    <personinfo id="1531005322.22.184" depart="184.00" type="DEFAULT_PEDTYPE">
        <walk depart="184.00" departPos="12.13" arrival="185.00" arrivalPos="13.13" duration="1.00" routeLength="1.00" timeLoss="0.28" maxSpeed="1.39"/>
        <ride waitingTime="1087.00" vehicle="bus_22:0.0" depart="1272.00" arrival="2222.00" arrivalPos="29.17" duration="950.00" routeLength="3497.93" timeLoss="87.91"/>
    </personinfo>
    <personinfo id="410462291.43.215" depart="215.00" type="DEFAULT_PEDTYPE">
        <walk depart="215.00" departPos="415.85" arrival="548.00" arrivalPos="0.00" duration="333.00" routeLength="415.85" timeLoss="33.59" maxSpeed="1.39"/>
        <ride waitingTime="925.00" vehicle="bus_43:0.0" depart="1473.00" arrival="2306.00" arrivalPos="33.16" duration="833.00" routeLength="3039.22" timeLoss="80.79"/>
    </personinfo>
    <personinfo id="410482568.22.1977" depart="1977.00" type="DEFAULT_PEDTYPE">
        <walk depart="1977.00" departPos="3.17" arrival="1978.00" arrivalPos="4.17" duration="1.00" routeLength="1.00" timeLoss="0.28" maxSpeed="1.39"/>
        <ride waitingTime="244.00" vehicle="bus_22:0.1" depart="2222.00" arrival="2341.00" arrivalPos="83.08" duration="119.00" routeLength="439.52" timeLoss="11.82"/>
    </personinfo>
    <personinfo id="410459651.22.1759" depart="1759.00" type="DEFAULT_PEDTYPE">
        <walk depart="1759.00" departPos="15.18" arrival="1760.00" arrivalPos="16.18" duration="1.00" routeLength="1.00" timeLoss="0.28" maxSpeed="1.39"/>
        <ride waitingTime="72.00" vehicle="bus_22:0.2" depart="1832.00" arrival="2398.00" arrivalPos="95.98" duration="566.00" routeLength="2092.49" timeLoss="52.69"/>
    </personinfo>
    <personinfo id="410462293.43.160" depart="160.00" type="DEFAULT_PEDTYPE">
        <walk depart="160.00" departPos="10.48" arrival="161.00" arrivalPos="11.48" duration="1.00" routeLength="1.00" timeLoss="0.28" maxSpeed="1.39"/>
        <ride waitingTime="1106.00" vehicle="bus_43:0.0" depart="1267.00" arrival="2407.00" arrivalPos="95.97" duration="1140.00" routeLength="4151.23" timeLoss="113.59"/>
    </personinfo>
    <personinfo id="410462101.22.327" depart="327.00" type="DEFAULT_PEDTYPE">
        <walk depart="327.00" departPos="11.46" arrival="328.00" arrivalPos="12.46" duration="1.00" routeLength="1.00" timeLoss="0.28" maxSpeed="1.39"/>
        <ride waitingTime="644.00" vehicle="bus_22:0.0" depart="972.00" arrival="2497.00" arrivalPos="323.23" duration="1525.00" routeLength="5587.61" timeLoss="148.28"/>
    </personinfo>
    <personinfo id="410475114.22.789" depart="789.00" type="DEFAULT_PEDTYPE">
        <walk depart="789.00" departPos="84.99" arrival="790.00" arrivalPos="85.99" duration="1.00" routeLength="1.00" timeLoss="0.28" maxSpeed="1.39"/>
        <ride waitingTime="392.00" vehicle="bus_22:0.0" depart="1182.00" arrival="2622.00" arrivalPos="138.89" duration="1440.00" routeLength="5283.86" timeLoss="138.35"/>
    </personinfo>
    <personinfo id="410459904.22.351" depart="351.00" type="DEFAULT_PEDTYPE">
        <walk depart="351.00" departPos="19.22" arrival="352.00" arrivalPos="20.22" duration="1.00" routeLength="1.00" timeLoss="0.28" maxSpeed="1.39"/>
        <ride waitingTime="565.00" vehicle="bus_22:0.1" depart="917.00" arrival="2628.00" arrivalPos="258.31" duration="1711.00" routeLength="6393.55" timeLoss="144.66"/>
    </personinfo>
    <personinfo id="410460005.22.951" depart="951.00" type="DEFAULT_PEDTYPE">
        <walk depart="951.00" departPos="286.81" arrival="1181.00" arrivalPos="0.00" duration="230.00" routeLength="286.81" timeLoss="23.50" maxSpeed="1.39"/>
        <ride waitingTime="22.00" vehicle="bus_22:0.2" depart="1203.00" arrival="2634.00" arrivalPos="13.84" duration="1431.00" routeLength="5296.64" timeLoss="131.24"/>
    </personinfo>
    <personinfo id="410459901.22.608" depart="608.00" type="DEFAULT_PEDTYPE">
        <walk depart="608.00" departPos="553.15" arrival="1051.00" arrivalPos="0.00" duration="443.00" routeLength="553.15" timeLoss="44.73" maxSpeed="1.39"/>
        <ride waitingTime="287.00" vehicle="bus_22:0.2" depart="1338.00" arrival="2634.00" arrivalPos="13.84" duration="1296.00" routeLength="4799.07" timeLoss="118.60"/>
    </personinfo>
    <personinfo id="410482568.22.45" depart="45.00" type="DEFAULT_PEDTYPE">
        <walk depart="45.00" departPos="3.17" arrival="46.00" arrivalPos="4.17" duration="1.00" routeLength="1.00" timeLoss="0.28" maxSpeed="1.39"/>
        <ride waitingTime="1586.00" vehicle="bus_22:0.0" depart="1632.00" arrival="2659.00" arrivalPos="37.17" duration="1027.00" routeLength="3772.33" timeLoss="98.00"/>
    </personinfo>
    <personinfo id="410462211.43.2244" depart="2244.00" type="DEFAULT_PEDTYPE">
        <walk depart="2244.00" departPos="18.63" arrival="2245.00" arrivalPos="19.63" duration="1.00" routeLength="1.00" timeLoss="0.28" maxSpeed="1.39"/>
        <ride waitingTime="334.00" vehicle="bus_43:0.2" depart="2579.00" arrival="2669.00" arrivalPos="10.15" duration="90.00" routeLength="322.03" timeLoss="11.48"/>
    </personinfo>
    <personinfo id="410474760.43.915" depart="915.00" type="DEFAULT_PEDTYPE">
        <walk depart="915.00" departPos="38.27" arrival="916.00" arrivalPos="39.27" duration="1.00" routeLength="1.00" timeLoss="0.28" maxSpeed="1.39"/>
        <ride waitingTime="278.00" vehicle="bus_43:0.1" depart="1194.00" arrival="2709.00" arrivalPos="40.59" duration="1515.00" routeLength="5595.71" timeLoss="139.28"/>
    </personinfo>
    <personinfo id="410459904.22.941" depart="941.00" type="DEFAULT_PEDTYPE">
        <walk depart="941.00" departPos="19.22" arrival="942.00" arrivalPos="20.22" duration="1.00" routeLength="1.00" timeLoss="0.28" maxSpeed="1.39"/>
        <ride waitingTime="581.00" vehicle="bus_22:0.2" depart="1523.00" arrival="2786.00" arrivalPos="31.76" duration="1263.00" routeLength="4690.01" timeLoss="112.18"/>
    </personinfo>
    <personinfo id="410475114.22.1858" depart="1858.00" type="DEFAULT_PEDTYPE">
        <walk depart="1858.00" departPos="84.99" arrival="1859.00" arrivalPos="85.99" duration="1.00" routeLength="1.00" timeLoss="0.28" maxSpeed="1.39"/>
        <ride waitingTime="540.00" vehicle="bus_22:0.2" depart="2399.00" arrival="2786.00" arrivalPos="31.76" duration="387.00" routeLength="1441.21" timeLoss="33.51"/>
    </personinfo>
    <personinfo id="410459904.22.1832" depart="1832.00" type="DEFAULT_PEDTYPE">
        <walk depart="1832.00" departPos="19.22" arrival="1833.00" arrivalPos="20.22" duration="1.00" routeLength="1.00" timeLoss="0.28" maxSpeed="1.39"/>
        <ride waitingTime="284.00" vehicle="bus_22:0.3" depart="2117.00" arrival="2794.00" arrivalPos="62.43" duration="677.00" routeLength="2526.91" timeLoss="57.72"/>
    </personinfo>
    <personinfo id="410459901.22.1522" depart="1522.00" type="DEFAULT_PEDTYPE">
        <walk depart="1522.00" departPos="553.15" arrival="1964.00" arrivalPos="0.00" duration="442.00" routeLength="553.15" timeLoss="43.73" maxSpeed="1.39"/>
        <ride waitingTime="572.00" vehicle="bus_22:0.4" depart="2536.00" arrival="2839.00" arrivalPos="48.70" duration="303.00" routeLength="1100.58" timeLoss="31.58"/>
    </personinfo>
    <personinfo id="410459897.22.189" depart="189.00" type="DEFAULT_PEDTYPE">
        <walk depart="189.00" departPos="23.17" arrival="190.00" arrivalPos="24.17" duration="1.00" routeLength="1.00" timeLoss="0.28" maxSpeed="1.39"/>
        <ride waitingTime="97.00" vehicle="bus_22:0.0" depart="287.00" arrival="2852.00" arrivalPos="39.39" duration="2565.00" routeLength="9451.83" timeLoss="238.84"/>
    </personinfo>
    <personinfo id="410483103.22.1144" depart="1144.00" type="DEFAULT_PEDTYPE">
        <walk depart="1144.00" departPos="165.36" arrival="1145.00" arrivalPos="166.36" duration="1.00" routeLength="1.00" timeLoss="0.28" maxSpeed="1.39"/>
        <ride waitingTime="213.00" vehicle="bus_22:0.0" depart="1358.00" arrival="2853.00" arrivalPos="39.39" duration="1495.00" routeLength="5475.70" timeLoss="143.56"/>
    </personinfo>
    <personinfo id="410480716.22.1125" depart="1125.00" type="DEFAULT_PEDTYPE">
        <walk depart="1125.00" departPos="9.98" arrival="1126.00" arrivalPos="10.98" duration="1.00" routeLength="1.00" timeLoss="0.28" maxSpeed="1.39"/>
        <ride waitingTime="1242.00" vehicle="bus_22:0.0" depart="2368.00" arrival="2853.00" arrivalPos="39.39" duration="485.00" routeLength="1762.25" timeLoss="49.23"/>
    </personinfo>
    <personinfo id="1847853709.43.327" depart="327.00" type="DEFAULT_PEDTYPE">
        <walk depart="327.00" departPos="16.23" arrival="328.00" arrivalPos="17.23" duration="1.00" routeLength="1.00" timeLoss="0.28" maxSpeed="1.39"/>
        <ride waitingTime="334.00" vehicle="bus_43:0.1" depart="662.00" arrival="2917.00" arrivalPos="33.16" duration="2255.00" routeLength="8354.80" timeLoss="203.35"/>
    </personinfo>
    <personinfo id="410475114.22.712" depart="712.00" type="DEFAULT_PEDTYPE">
        <walk depart="712.00" departPos="84.99" arrival="713.00" arrivalPos="85.99" duration="1.00" routeLength="1.00" timeLoss="0.28" maxSpeed="1.39"/>
        <ride waitingTime="469.00" vehicle="bus_22:0.0" depart="1182.00" arrival="2965.00" arrivalPos="32.67" duration="1783.00" routeLength="6506.77" timeLoss="172.10"/>
    </personinfo>
    <personinfo id="410482520.22.894" depart="894.00" type="DEFAULT_PEDTYPE">
        <walk depart="894.00" departPos="2.85" arrival="895.00" arrivalPos="3.85" duration="1.00" routeLength="1.00" timeLoss="0.28" maxSpeed="1.39"/>
        <ride waitingTime="532.00" vehicle="bus_22:0.0" depart="1427.00" arrival="2966.00" arrivalPos="32.67" duration="1539.00" routeLength="5626.02" timeLoss="145.90"/>
    </personinfo>
    <personinfo id="410464248.22.1234" depart="1234.00" type="DEFAULT_PEDTYPE">
        <walk depart="1234.00" departPos="23.64" arrival="1235.00" arrivalPos="24.64" duration="1.00" routeLength="1.00" timeLoss="0.28" maxSpeed="1.39"/>
        <ride waitingTime="1512.00" vehicle="bus_22:0.0" depart="2747.00" arrival="2966.00" arrivalPos="32.67" duration="219.00" routeLength="785.65" timeLoss="18.40"/>
    </personinfo>
    <personinfo id="410465916.22.950" depart="950.00" type="DEFAULT_PEDTYPE">
        <walk depart="950.00" departPos="28.40" arrival="951.00" arrivalPos="29.40" duration="1.00" routeLength="1.00" timeLoss="0.28" maxSpeed="1.39"/>
        <ride waitingTime="1904.00" vehicle="bus_22:0.0" depart="2855.00" arrival="2967.00" arrivalPos="32.67" duration="112.00" routeLength="395.30" timeLoss="9.60"/>
    </personinfo>
    <personinfo id="410486969.43.838" depart="838.00" type="DEFAULT_PEDTYPE">
        <walk depart="838.00" departPos="0.12" arrival="839.00" arrivalPos="1.12" duration="1.00" routeLength="1.00" timeLoss="0.28" maxSpeed="1.39"/>
        <ride waitingTime="1145.00" vehicle="bus_43:0.0" depart="1984.00" arrival="2968.00" arrivalPos="83.10" duration="984.00" routeLength="3633.73" timeLoss="89.79"/>
    </personinfo>
    <personinfo id="410462103.22.2497" depart="2497.00" type="DEFAULT_PEDTYPE">
        <walk depart="2497.00" departPos="51.46" arrival="2498.00" arrivalPos="52.46" duration="1.00" routeLength="1.00" timeLoss="0.28" maxSpeed="1.39"/>
        <ride waitingTime="298.00" vehicle="bus_22:0.3" depart="2796.00" arrival="2989.00" arrivalPos="95.96" duration="193.00" routeLength="721.97" timeLoss="16.93"/>
    </personinfo>
    <personinfo id="1531005322.22.1271" depart="1271.00" type="DEFAULT_PEDTYPE">
        <walk depart="1271.00" departPos="12.13" arrival="1272.00" arrivalPos="13.13" duration="1.00" routeLength="1.00" timeLoss="0.28" maxSpeed="1.39"/>
        <ride waitingTime="596.00" vehicle="bus_22:0.1" depart="1868.00" arrival="3039.00" arrivalPos="195.18" duration="1171.00" routeLength="4377.37" timeLoss="98.40"/>
    </personinfo>
    <personinfo id="1849631269.43.2024" depart="2024.00" type="DEFAULT_PEDTYPE">
        <walk depart="2024.00" departPos="160.44" arrival="2153.00" arrivalPos="0.00" duration="129.00" routeLength="160.44" timeLoss="13.48" maxSpeed="1.39"/>
        <ride waitingTime="477.00" vehicle="bus_43:0.3" depart="2630.00" arrival="3061.00" arrivalPos="61.18" duration="431.00" routeLength="1597.74" timeLoss="39.34"/>
    </personinfo>
    <personinfo id="410459651.22.2244" depart="2244.00" type="DEFAULT_PEDTYPE">
        <walk depart="2244.00" departPos="15.18" arrival="2245.00" arrivalPos="16.18" duration="1.00" routeLength="1.00" timeLoss="0.28" maxSpeed="1.39"/>
        <ride waitingTime="180.00" vehicle="bus_22:0.3" depart="2425.00" arrival="3078.00" arrivalPos="24.57" duration="653.00" routeLength="2412.70" timeLoss="59.57"/>
    </personinfo>
    <personinfo id="410459904.22.416" depart="416.00" type="DEFAULT_PEDTYPE">
        <walk depart="416.00" departPos="19.22" arrival="417.00" arrivalPos="20.22" duration="1.00" routeLength="1.00" timeLoss="0.28" maxSpeed="1.39"/>
        <ride waitingTime="500.00" vehicle="bus_22:0.1" depart="917.00" arrival="3078.00" arrivalPos="323.22" duration="2161.00" routeLength="8074.48" timeLoss="182.71"/>
    </personinfo>
    <personinfo id="410465916.22.1022" depart="1022.00" type="DEFAULT_PEDTYPE">
        <walk depart="1022.00" departPos="28.40" arrival="1023.00" arrivalPos="29.40" duration="1.00" routeLength="1.00" timeLoss="0.28" maxSpeed="1.39"/>
        <ride waitingTime="1832.00" vehicle="bus_22:0.0" depart="2855.00" arrival="3098.00" arrivalPos="10.72" duration="243.00" routeLength="874.40" timeLoss="20.75"/>
    </personinfo>
    <personinfo id="410465917.22.2385" depart="2385.00" type="DEFAULT_PEDTYPE">
        <walk depart="2385.00" departPos="21.70" arrival="2386.00" arrivalPos="22.70" duration="1.00" routeLength="1.00" timeLoss="0.28" maxSpeed="1.39"/>
        <ride waitingTime="582.00" vehicle="bus_22:0.0" depart="2968.00" arrival="3098.00" arrivalPos="10.72" duration="130.00" routeLength="479.10" timeLoss="11.15"/>
    </personinfo>
    <personinfo id="410459904.22.1829" depart="1829.00" type="DEFAULT_PEDTYPE">
        <walk depart="1829.00" departPos="19.22" arrival="1830.00" arrivalPos="20.22" duration="1.00" routeLength="1.00" timeLoss="0.28" maxSpeed="1.39"/>
        <ride waitingTime="287.00" vehicle="bus_22:0.3" depart="2117.00" arrival="3165.00" arrivalPos="176.34" duration="1048.00" routeLength="3884.65" timeLoss="93.59"/>
    </personinfo>
    <personinfo id="410482570.22.2457" depart="2457.00" type="DEFAULT_PEDTYPE">
        <walk depart="2457.00" departPos="91.56" arrival="2458.00" arrivalPos="92.56" duration="1.00" routeLength="1.00" timeLoss="0.28" maxSpeed="1.39"/>
        <ride waitingTime="127.00" vehicle="bus_22:0.1" depart="2585.00" arrival="3204.00" arrivalPos="138.88" duration="619.00" routeLength="2294.89" timeLoss="56.31"/>
    </personinfo>
    <personinfo id="410465916.22.2586" depart="2586.00" type="DEFAULT_PEDTYPE">
        <walk depart="2586.00" departPos="28.40" arrival="2587.00" arrivalPos="29.40" duration="1.00" routeLength="1.00" timeLoss="0.28" maxSpeed="1.39"/>
        <ride waitingTime="268.00" vehicle="bus_22:0.0" depart="2855.00" arrival="3224.00" arrivalPos="10.25" duration="369.00" routeLength="1332.11" timeLoss="33.12"/>
    </personinfo>
    <personinfo id="410465917.22.273" depart="273.00" type="DEFAULT_PEDTYPE">
        <walk depart="273.00" departPos="21.70" arrival="274.00" arrivalPos="22.70" duration="1.00" routeLength="1.00" timeLoss="0.28" maxSpeed="1.39"/>
        <ride waitingTime="2694.00" vehicle="bus_22:0.0" depart="2968.00" arrival="3225.00" arrivalPos="10.25" duration="257.00" routeLength="936.86" timeLoss="23.52"/>
    </personinfo>
    <personinfo id="410465915.22.757" depart="757.00" type="DEFAULT_PEDTYPE">
        <walk depart="757.00" departPos="138.08" arrival="867.00" arrivalPos="0.00" duration="110.00" routeLength="138.08" timeLoss="10.58" maxSpeed="1.39"/>
        <ride waitingTime="2233.00" vehicle="bus_22:0.0" depart="3100.00" arrival="3225.00" arrivalPos="10.25" duration="125.00" routeLength="457.75" timeLoss="12.37"/>
    </personinfo>
    <personinfo id="410465915.22.2353" depart="2353.00" type="DEFAULT_PEDTYPE">
        <walk depart="2353.00" departPos="138.08" arrival="2464.00" arrivalPos="0.00" duration="111.00" routeLength="138.08" timeLoss="11.58" maxSpeed="1.39"/>
        <ride waitingTime="636.00" vehicle="bus_22:0.0" depart="3100.00" arrival="3226.00" arrivalPos="10.25" duration="126.00" routeLength="457.75" timeLoss="12.37"/>
    </personinfo>
    <personinfo id="410465915.22.2415" depart="2415.00" type="DEFAULT_PEDTYPE">
        <walk depart="2415.00" departPos="138.08" arrival="2527.00" arrivalPos="0.00" duration="112.00" routeLength="138.08" timeLoss="12.58" maxSpeed="1.39"/>
        <ride waitingTime="573.00" vehicle="bus_22:0.0" depart="3100.00" arrival="3226.00" arrivalPos="10.25" duration="126.00" routeLength="457.75" timeLoss="12.37"/>
    </personinfo>
    <personinfo id="410460005.22.922" depart="922.00" type="DEFAULT_PEDTYPE">
        <walk depart="922.00" departPos="286.81" arrival="1151.00" arrivalPos="0.00" duration="229.00" routeLength="286.81" timeLoss="22.50" maxSpeed="1.39"/>
        <ride waitingTime="52.00" vehicle="bus_22:0.2" depart="1203.00" arrival="3241.00" arrivalPos="258.30" duration="2038.00" routeLength="7560.60" timeLoss="182.07"/>
    </personinfo>
    <personinfo id="410482520.22.2602" depart="2602.00" type="DEFAULT_PEDTYPE">
        <walk depart="2602.00" departPos="2.85" arrival="2603.00" arrivalPos="3.85" duration="1.00" routeLength="1.00" timeLoss="0.28" maxSpeed="1.39"/>
        <ride waitingTime="33.00" vehicle="bus_22:0.2" depart="2636.00" arrival="3241.00" arrivalPos="258.30" duration="605.00" routeLength="2264.01" timeLoss="50.83"/>
    </personinfo>
    <personinfo id="410482564.43.1629" depart="1629.00" type="DEFAULT_PEDTYPE">
        <walk depart="1629.00" departPos="87.68" arrival="1630.00" arrivalPos="88.68" duration="1.00" routeLength="1.00" timeLoss="0.28" maxSpeed="1.39"/>
        <ride waitingTime="1514.00" vehicle="bus_43:0.0" depart="3144.00" arrival="3262.00" arrivalPos="258.30" duration="118.00" routeLength="420.44" timeLoss="13.47"/>
    </personinfo>
    <personinfo id="410459897.22.2898" depart="2898.00" type="DEFAULT_PEDTYPE">
        <walk depart="2898.00" departPos="23.17" arrival="2899.00" arrivalPos="24.17" duration="1.00" routeLength="1.00" timeLoss="0.28" maxSpeed="1.39"/>
        <ride waitingTime="391.00" vehicle="bus_22:0.5" depart="3290.00" arrival="3317.00" arrivalPos="30.19" duration="27.00" routeLength="91.50" timeLoss="4.69"/>
    </personinfo>
    <personinfo id="410486969.43.2950" depart="2950.00" type="DEFAULT_PEDTYPE">
        <walk depart="2950.00" departPos="0.12" arrival="2951.00" arrivalPos="1.12" duration="1.00" routeLength="1.00" timeLoss="0.28" maxSpeed="1.39"/>
        <ride waitingTime="220.00" vehicle="bus_43:0.2" depart="3171.00" arrival="3341.00" arrivalPos="68.30" duration="170.00" routeLength="634.59" timeLoss="15.24"/>
    </personinfo>
    <personinfo id="1849631269.43.19" depart="19.00" type="DEFAULT_PEDTYPE">
        <walk depart="19.00" departPos="160.44" arrival="148.00" arrivalPos="0.00" duration="129.00" routeLength="160.44" timeLoss="13.48" maxSpeed="1.39"/>
        <ride waitingTime="665.00" vehicle="bus_43:0.0" depart="813.00" arrival="3351.00" arrivalPos="10.11" duration="2538.00" routeLength="9324.77" timeLoss="237.82"/>
    </personinfo>
    <personinfo id="410486991.43.352" depart="352.00" type="DEFAULT_PEDTYPE">
        <walk depart="352.00" departPos="194.33" arrival="353.00" arrivalPos="195.33" duration="1.00" routeLength="1.00" timeLoss="0.28" maxSpeed="1.39"/>
        <ride waitingTime="1321.00" vehicle="bus_43:0.0" depart="1674.00" arrival="3351.00" arrivalPos="10.11" duration="1677.00" routeLength="6140.17" timeLoss="162.51"/>
    </personinfo>
    <personinfo id="410459904.22.2251" depart="2251.00" type="DEFAULT_PEDTYPE">
        <walk depart="2251.00" departPos="19.22" arrival="2252.00" arrivalPos="20.22" duration="1.00" routeLength="1.00" timeLoss="0.28" maxSpeed="1.39"/>
        <ride waitingTime="470.00" vehicle="bus_22:0.4" depart="2722.00" arrival="3389.00" arrivalPos="22.44" duration="667.00" routeLength="2486.84" timeLoss="57.48"/>
    </personinfo>
    <personinfo id="410459904.22.2430" depart="2430.00" type="DEFAULT_PEDTYPE">
        <walk depart="2430.00" departPos="19.22" arrival="2431.00" arrivalPos="20.22" duration="1.00" routeLength="1.00" timeLoss="0.28" maxSpeed="1.39"/>
        <ride waitingTime="291.00" vehicle="bus_22:0.4" depart="2722.00" arrival="3390.00" arrivalPos="22.44" duration="668.00" routeLength="2486.84" timeLoss="57.48"/>
    </personinfo>
    <personinfo id="410467153.22.2930" depart="2930.00" type="DEFAULT_PEDTYPE">
        <walk depart="2930.00" departPos="8.01" arrival="2931.00" arrivalPos="9.01" duration="1.00" routeLength="1.00" timeLoss="0.28" maxSpeed="1.39"/>
        <ride waitingTime="322.00" vehicle="bus_22:0.4" depart="3253.00" arrival="3390.00" arrivalPos="22.44" duration="137.00" routeLength="501.63" timeLoss="12.68"/>
    </personinfo>
    <personinfo id="410480724.22.378" depart="378.00" type="DEFAULT_PEDTYPE">
        <walk depart="378.00" departPos="26.17" arrival="379.00" arrivalPos="27.17" duration="1.00" routeLength="1.00" timeLoss="0.28" maxSpeed="1.39"/>
        <ride waitingTime="2281.00" vehicle="bus_22:0.0" depart="2660.00" arrival="3424.00" arrivalPos="80.50" duration="764.00" routeLength="2758.28" timeLoss="70.29"/>
    </personinfo>
    <personinfo id="410465917.22.2278" depart="2278.00" type="DEFAULT_PEDTYPE">
        <walk depart="2278.00" departPos="21.70" arrival="2279.00" arrivalPos="22.70" duration="1.00" routeLength="1.00" timeLoss="0.28" maxSpeed="1.39"/>
        <ride waitingTime="689.00" vehicle="bus_22:0.0" depart="2968.00" arrival="3424.00" arrivalPos="80.50" duration="456.00" routeLength="1660.91" timeLoss="41.92"/>
    </personinfo>
    <personinfo id="410465917.22.2552" depart="2552.00" type="DEFAULT_PEDTYPE">
        <walk depart="2552.00" departPos="21.70" arrival="2553.00" arrivalPos="22.70" duration="1.00" routeLength="1.00" timeLoss="0.28" maxSpeed="1.39"/>
        <ride waitingTime="415.00" vehicle="bus_22:0.0" depart="2968.00" arrival="3425.00" arrivalPos="80.50" duration="457.00" routeLength="1660.91" timeLoss="41.92"/>
    </personinfo>
    <personinfo id="410465917.22.2609" depart="2609.00" type="DEFAULT_PEDTYPE">
        <walk depart="2609.00" departPos="21.70" arrival="2610.00" arrivalPos="22.70" duration="1.00" routeLength="1.00" timeLoss="0.28" maxSpeed="1.39"/>
        <ride waitingTime="358.00" vehicle="bus_22:0.0" depart="2968.00" arrival="3425.00" arrivalPos="80.50" duration="457.00" routeLength="1660.91" timeLoss="41.92"/>
    </personinfo>