<?xml version="1.0" encoding="UTF-8"?>

<!-- generated on 2024-03-14 13:13:00 by Eclipse SUMO GUI Version 1.14.1
<configuration xmlns:xsi="http://www.w3.org/2001/XMLSchema-instance" xsi:noNamespaceSchemaLocation="http://sumo.dlr.de/xsd/sumoConfiguration.xsd">

    <input>
        <net-file value="singapore/singapore.net.xml"/>
        <route-files value="singapore/busFlows.rou.xml"/>
        <additional-files value="singapore/busstops.xml"/>
    </input>

    <output>
        <tripinfo-output value="tripinfo.xml"/>
    </output>

    <processing>
        <no-internal-links value="true"/>
    </processing>

    <traci_server>
        <remote-port value="57118"/>
    </traci_server>

</configuration>
-->

<tripinfos xmlns:xsi="http://www.w3.org/2001/XMLSchema-instance" xsi:noNamespaceSchemaLocation="http://sumo.dlr.de/xsd/tripinfo_file.xsd">
    <personinfo id="410465916.22.292" depart="292.00" type="DEFAULT_PEDTYPE">
        <walk depart="292.00" departPos="28.40" arrival="293.00" arrivalPos="29.40" duration="1.00" routeLength="1.00" timeLoss="0.28" maxSpeed="1.39"/>
        <ride waitingTime="431.00" vehicle="bus_22:0.0" depart="724.00" arrival="789.00" arrivalPos="11.73" duration="65.00" routeLength="818.68" timeLoss="14.89"/>
    </personinfo>
    <personinfo id="1849631331.43.397" depart="397.00" type="DEFAULT_PEDTYPE">
        <walk depart="397.00" departPos="42.45" arrival="398.00" arrivalPos="43.45" duration="1.00" routeLength="1.00" timeLoss="0.28" maxSpeed="1.39"/>
        <ride waitingTime="283.00" vehicle="bus_43:0.1" depart="681.00" arrival="818.00" arrivalPos="10.31" duration="137.00" routeLength="1909.83" timeLoss="19.63"/>
    </personinfo>
    <personinfo id="410465915.22.22" depart="22.00" type="DEFAULT_PEDTYPE">
        <walk depart="22.00" departPos="130.08" arrival="127.00" arrivalPos="0.00" duration="105.00" routeLength="130.08" timeLoss="11.34" maxSpeed="1.39"/>
        <ride waitingTime="663.00" vehicle="bus_22:0.0" depart="790.00" arrival="891.00" arrivalPos="85.48" duration="101.00" routeLength="1125.91" timeLoss="22.05"/>
    </personinfo>
    <personinfo id="410462103.22.361" depart="361.00" type="DEFAULT_PEDTYPE">
        <walk depart="361.00" departPos="11.46" arrival="362.00" arrivalPos="12.46" duration="1.00" routeLength="1.00" timeLoss="0.28" maxSpeed="1.39"/>
        <ride waitingTime="502.00" vehicle="bus_22:0.1" depart="864.00" arrival="977.00" arrivalPos="181.35" duration="113.00" routeLength="1297.50" timeLoss="33.84"/>
    </personinfo>
    <personinfo id="410475114.22.293" depart="293.00" type="DEFAULT_PEDTYPE">
        <walk depart="293.00" departPos="84.99" arrival="294.00" arrivalPos="85.99" duration="1.00" routeLength="1.00" timeLoss="0.28" maxSpeed="1.39"/>
        <ride waitingTime="24.00" vehicle="bus_22:0.0" depart="318.00" arrival="978.00" arrivalPos="272.83" duration="660.00" routeLength="8281.81" timeLoss="85.31"/>
    </personinfo>
    <personinfo id="410465916.22.160" depart="160.00" type="DEFAULT_PEDTYPE">
        <walk depart="160.00" departPos="28.40" arrival="161.00" arrivalPos="29.40" duration="1.00" routeLength="1.00" timeLoss="0.28" maxSpeed="1.39"/>
        <ride waitingTime="563.00" vehicle="bus_22:0.0" depart="724.00" arrival="978.00" arrivalPos="272.83" duration="254.00" routeLength="2546.23" timeLoss="48.51"/>
    </personinfo>
    <personinfo id="410465915.22.192" depart="192.00" type="DEFAULT_PEDTYPE">
        <walk depart="192.00" departPos="130.08" arrival="296.00" arrivalPos="0.00" duration="104.00" routeLength="130.08" timeLoss="10.34" maxSpeed="1.39"/>
        <ride waitingTime="494.00" vehicle="bus_22:0.0" depart="790.00" arrival="978.00" arrivalPos="272.83" duration="188.00" routeLength="1727.55" timeLoss="33.62"/>
    </personinfo>
    <personinfo id="410465915.22.258" depart="258.00" type="DEFAULT_PEDTYPE">
        <walk depart="258.00" departPos="130.08" arrival="363.00" arrivalPos="0.00" duration="105.00" routeLength="130.08" timeLoss="11.34" maxSpeed="1.39"/>
        <ride waitingTime="427.00" vehicle="bus_22:0.0" depart="790.00" arrival="979.00" arrivalPos="272.83" duration="189.00" routeLength="1727.55" timeLoss="33.62"/>
    </personinfo>
    <personinfo id="410462762.22.232" depart="232.00" type="DEFAULT_PEDTYPE">
        <walk depart="232.00" departPos="639.18" arrival="746.00" arrivalPos="0.00" duration="514.00" routeLength="639.18" timeLoss="53.79" maxSpeed="1.39"/>
        <ride waitingTime="81.00" vehicle="bus_22:0.0" depart="827.00" arrival="979.00" arrivalPos="272.83" duration="152.00" routeLength="1315.05" timeLoss="22.58"/>
    </personinfo>
    <personinfo id="410462103.22.707" depart="707.00" type="DEFAULT_PEDTYPE">
        <walk depart="707.00" departPos="11.46" arrival="708.00" arrivalPos="12.46" duration="1.00" routeLength="1.00" timeLoss="0.28" maxSpeed="1.39"/>
        <ride waitingTime="156.00" vehicle="bus_22:0.1" depart="864.00" arrival="1004.00" arrivalPos="18.84" duration="140.00" routeLength="1514.68" timeLoss="46.82"/>
    </personinfo>
    <tripinfo id="bus_22:0.0" depart="0.00" departLane="543768663_0" departPos="7.80" departSpeed="0.00" departDelay="0.00" arrival="1012.00" arrivalLane="245934570#2_0" arrivalPos="422.97" arrivalSpeed="5.33" duration="1012.00" routeLength="12633.03" waitingTime="1.00" waitingCount="1" stopTime="9.00" timeLoss="130.13" rerouteNo="0" devices="tripinfo_bus_22:0.0 person_bus_22:0.0" vType="bus" speedFactor="1.00" vaporized=""/>
    <personinfo id="410475114.22.880" depart="880.00" type="DEFAULT_PEDTYPE">
        <walk depart="880.00" departPos="84.99" arrival="881.00" arrivalPos="85.99" duration="1.00" routeLength="1.00" timeLoss="0.28" maxSpeed="1.39"/>
        <ride waitingTime="48.00" vehicle="bus_22:0.1" depart="929.00" arrival="1131.00" arrivalPos="103.68" duration="202.00" routeLength="2560.17" timeLoss="43.62"/>
    </personinfo>
    <personinfo id="410460005.22.377" depart="377.00" type="DEFAULT_PEDTYPE">
        <walk depart="377.00" departPos="270.27" arrival="594.00" arrivalPos="0.00" duration="217.00" routeLength="270.27" timeLoss="22.41" maxSpeed="1.39"/>
        <ride waitingTime="8.00" vehicle="bus_22:0.1" depart="602.00" arrival="1172.00" arrivalPos="263.28" duration="570.00" routeLength="7173.06" timeLoss="102.37"/>
    </personinfo>
    <personinfo id="410467553.43.121" depart="121.00" type="DEFAULT_PEDTYPE">
        <walk depart="121.00" departPos="65.85" arrival="122.00" arrivalPos="66.85" duration="1.00" routeLength="1.00" timeLoss="0.28" maxSpeed="1.39"/>
        <ride waitingTime="1091.00" vehicle="bus_43:0.0" depart="1213.00" arrival="1238.00" arrivalPos="12.87" duration="25.00" routeLength="212.43" timeLoss="12.26"/>
    </personinfo>
    <personinfo id="410462103.22.619" depart="619.00" type="DEFAULT_PEDTYPE">
        <walk depart="619.00" departPos="11.46" arrival="620.00" arrivalPos="12.46" duration="1.00" routeLength="1.00" timeLoss="0.28" maxSpeed="1.39"/>
        <ride waitingTime="244.00" vehicle="bus_22:0.1" depart="864.00" arrival="1275.00" arrivalPos="25.98" duration="411.00" routeLength="4791.83" timeLoss="97.83"/>
    </personinfo>
    <personinfo id="410462291.43.136" depart="136.00" type="DEFAULT_PEDTYPE">
        <walk depart="136.00" departPos="407.86" arrival="463.00" arrivalPos="0.00" duration="327.00" routeLength="407.86" timeLoss="33.34" maxSpeed="1.39"/>
        <ride waitingTime="559.00" vehicle="bus_43:0.1" depart="1022.00" arrival="1283.00" arrivalPos="100.99" duration="261.00" routeLength="3167.24" timeLoss="61.45"/>
    </personinfo>
    <personinfo id="410480716.22.916" depart="916.00" type="DEFAULT_PEDTYPE">
        <walk depart="916.00" departPos="9.98" arrival="917.00" arrivalPos="10.98" duration="1.00" routeLength="1.00" timeLoss="0.28" maxSpeed="1.39"/>
        <ride waitingTime="359.00" vehicle="bus_22:0.1" depart="1276.00" arrival="1370.00" arrivalPos="39.62" duration="94.00" routeLength="1289.21" timeLoss="16.19"/>
    </personinfo>
    <personinfo id="1849631331.43.767" depart="767.00" type="DEFAULT_PEDTYPE">
        <walk depart="767.00" departPos="42.45" arrival="768.00" arrivalPos="43.45" duration="1.00" routeLength="1.00" timeLoss="0.28" maxSpeed="1.39"/>
        <ride waitingTime="505.00" vehicle="bus_43:0.2" depart="1273.00" arrival="1371.00" arrivalPos="41.57" duration="98.00" routeLength="1343.94" timeLoss="17.39"/>
    </personinfo>
    <personinfo id="410459897.22.1259" depart="1259.00" type="DEFAULT_PEDTYPE">
        <walk depart="1259.00" departPos="23.17" arrival="1260.00" arrivalPos="24.17" duration="1.00" routeLength="1.00" timeLoss="0.28" maxSpeed="1.39"/>
        <ride waitingTime="67.00" vehicle="bus_22:0.2" depart="1327.00" arrival="1380.00" arrivalPos="53.70" duration="53.00" routeLength="479.50" timeLoss="23.39"/>
    </personinfo>
    <personinfo id="1531005322.43.942" depart="942.00" type="DEFAULT_PEDTYPE">
        <walk depart="942.00" departPos="12.13" arrival="943.00" arrivalPos="13.13" duration="1.00" routeLength="1.00" timeLoss="0.28" maxSpeed="1.39"/>
        <ride waitingTime="371.00" vehicle="bus_43:0.1" depart="1314.00" arrival="1403.00" arrivalPos="36.75" duration="89.00" routeLength="1031.34" timeLoss="25.86"/>
    </personinfo>
    <personinfo id="410462293.43.47" depart="47.00" type="DEFAULT_PEDTYPE">
        <walk depart="47.00" departPos="10.48" arrival="48.00" arrivalPos="11.48" duration="1.00" routeLength="1.00" timeLoss="0.28" maxSpeed="1.39"/>
        <ride waitingTime="266.00" vehicle="bus_43:0.0" depart="314.00" arrival="1423.00" arrivalPos="55.77" duration="1109.00" routeLength="14756.08" timeLoss="160.08"/>
    </personinfo>
    <personinfo id="410467564.43.194" depart="194.00" type="DEFAULT_PEDTYPE">
        <walk depart="194.00" departPos="53.90" arrival="195.00" arrivalPos="54.90" duration="1.00" routeLength="1.00" timeLoss="0.28" maxSpeed="1.39"/>
        <ride waitingTime="1082.00" vehicle="bus_43:0.0" depart="1277.00" arrival="1423.00" arrivalPos="55.77" duration="146.00" routeLength="2143.31" timeLoss="17.43"/>
    </personinfo>
    <personinfo id="410462211.43.823" depart="823.00" type="DEFAULT_PEDTYPE">
        <walk depart="823.00" departPos="18.63" arrival="824.00" arrivalPos="19.63" duration="1.00" routeLength="1.00" timeLoss="0.28" maxSpeed="1.39"/>
        <ride waitingTime="167.00" vehicle="bus_43:0.1" depart="991.00" arrival="1427.00" arrivalPos="19.14" duration="436.00" routeLength="4979.82" timeLoss="122.45"/>
    </personinfo>
    <personinfo id="410482564.43.485" depart="485.00" type="DEFAULT_PEDTYPE">
        <walk depart="485.00" departPos="87.68" arrival="486.00" arrivalPos="88.68" duration="1.00" routeLength="1.00" timeLoss="0.28" maxSpeed="1.39"/>
        <ride waitingTime="282.00" vehicle="bus_43:0.0" depart="768.00" arrival="1459.00" arrivalPos="32.35" duration="691.00" routeLength="8723.62" timeLoss="113.71"/>
    </personinfo>
    <personinfo id="410478275.43.480" depart="480.00" type="DEFAULT_PEDTYPE">
        <walk depart="480.00" departPos="29.48" arrival="481.00" arrivalPos="30.48" duration="1.00" routeLength="1.00" timeLoss="0.28" maxSpeed="1.39"/>
        <ride waitingTime="502.00" vehicle="bus_43:0.0" depart="983.00" arrival="1459.00" arrivalPos="32.35" duration="476.00" routeLength="6092.57" timeLoss="77.11"/>
    </personinfo>
    <personinfo id="410459901.22.427" depart="427.00" type="DEFAULT_PEDTYPE">
        <walk depart="427.00" departPos="545.30" arrival="864.00" arrivalPos="0.00" duration="437.00" routeLength="545.30" timeLoss="44.38" maxSpeed="1.39"/>
        <ride waitingTime="416.00" vehicle="bus_22:0.2" depart="1280.00" arrival="1528.00" arrivalPos="27.46" duration="248.00" routeLength="3039.75" timeLoss="73.37"/>
    </personinfo>
    <personinfo id="410486955.43.822" depart="822.00" type="DEFAULT_PEDTYPE">
        <walk depart="822.00" departPos="49.88" arrival="823.00" arrivalPos="50.88" duration="1.00" routeLength="1.00" timeLoss="0.28" maxSpeed="1.39"/>
        <ride waitingTime="280.00" vehicle="bus_43:0.1" depart="1103.00" arrival="1539.00" arrivalPos="107.55" duration="436.00" routeLength="4881.57" timeLoss="123.02"/>
    </personinfo>
    <personinfo id="410462211.43.824" depart="824.00" type="DEFAULT_PEDTYPE">
        <walk depart="824.00" departPos="18.63" arrival="825.00" arrivalPos="19.63" duration="1.00" routeLength="1.00" timeLoss="0.28" maxSpeed="1.39"/>
        <ride waitingTime="166.00" vehicle="bus_43:0.1" depart="991.00" arrival="1560.00" arrivalPos="263.30" duration="569.00" routeLength="6425.25" timeLoss="158.23"/>
    </personinfo>
    <personinfo id="410482570.43.533" depart="533.00" type="DEFAULT_PEDTYPE">
        <walk depart="533.00" departPos="91.56" arrival="534.00" arrivalPos="92.56" duration="1.00" routeLength="1.00" timeLoss="0.28" maxSpeed="1.39"/>
        <ride waitingTime="264.00" vehicle="bus_43:0.0" depart="798.00" arrival="1568.00" arrivalPos="45.25" duration="770.00" routeLength="9799.71" timeLoss="114.24"/>
    </personinfo>
    <personinfo id="410460005.22.71" depart="71.00" type="DEFAULT_PEDTYPE">
        <walk depart="71.00" departPos="270.27" arrival="288.00" arrivalPos="0.00" duration="217.00" routeLength="270.27" timeLoss="22.41" maxSpeed="1.39"/>
        <ride waitingTime="314.00" vehicle="bus_22:0.1" depart="602.00" arrival="1577.00" arrivalPos="85.48" duration="975.00" routeLength="11881.25" timeLoss="190.24"/>
    </personinfo>
    <personinfo id="410482520.22.936" depart="936.00" type="DEFAULT_PEDTYPE">
        <walk depart="936.00" departPos="2.85" arrival="937.00" arrivalPos="3.85" duration="1.00" routeLength="1.00" timeLoss="0.28" maxSpeed="1.39"/>
        <ride waitingTime="68.00" vehicle="bus_22:0.1" depart="1005.00" arrival="1577.00" arrivalPos="85.48" duration="572.00" routeLength="6881.13" timeLoss="116.11"/>
    </personinfo>
    <personinfo id="410471030.22.692" depart="692.00" type="DEFAULT_PEDTYPE">
        <walk depart="692.00" departPos="18.18" arrival="693.00" arrivalPos="19.18" duration="1.00" routeLength="1.00" timeLoss="0.28" maxSpeed="1.39"/>
        <ride waitingTime="537.00" vehicle="bus_22:0.1" depart="1230.00" arrival="1577.00" arrivalPos="85.48" duration="347.00" routeLength="4085.18" timeLoss="76.73"/>
    </personinfo>
    <personinfo id="410462762.22.821" depart="821.00" type="DEFAULT_PEDTYPE">
        <walk depart="821.00" departPos="639.18" arrival="1339.00" arrivalPos="0.00" duration="518.00" routeLength="639.18" timeLoss="57.79" maxSpeed="1.39"/>
        <ride waitingTime="175.00" vehicle="bus_22:0.1" depart="1514.00" arrival="1578.00" arrivalPos="85.48" duration="64.00" routeLength="713.38" timeLoss="9.98"/>
    </personinfo>
    <personinfo id="4430976208.43.582" depart="582.00" type="DEFAULT_PEDTYPE">
        <walk depart="582.00" departPos="18.61" arrival="583.00" arrivalPos="19.61" duration="1.00" routeLength="1.00" timeLoss="0.28" maxSpeed="1.39"/>
        <ride waitingTime="556.00" vehicle="bus_43:0.1" depart="1139.00" arrival="1592.00" arrivalPos="12.12" duration="453.00" routeLength="4929.59" timeLoss="130.87"/>
    </personinfo>
    <personinfo id="410482520.43.1156" depart="1156.00" type="DEFAULT_PEDTYPE">
        <walk depart="1156.00" departPos="2.85" arrival="1157.00" arrivalPos="3.85" duration="1.00" routeLength="1.00" timeLoss="0.28" maxSpeed="1.39"/>
        <ride waitingTime="202.00" vehicle="bus_43:0.1" depart="1359.00" arrival="1592.00" arrivalPos="12.12" duration="233.00" routeLength="2456.75" timeLoss="69.71"/>
    </personinfo>
    <personinfo id="1855320978.43.171" depart="171.00" type="DEFAULT_PEDTYPE">
        <walk depart="171.00" departPos="29.59" arrival="172.00" arrivalPos="30.59" duration="1.00" routeLength="1.00" timeLoss="0.28" maxSpeed="1.39"/>
        <ride waitingTime="340.00" vehicle="bus_43:0.0" depart="512.00" arrival="1648.00" arrivalPos="16.46" duration="1136.00" routeLength="14444.38" timeLoss="173.11"/>
    </personinfo>
    <personinfo id="410467564.43.758" depart="758.00" type="DEFAULT_PEDTYPE">
        <walk depart="758.00" departPos="53.90" arrival="759.00" arrivalPos="54.90" duration="1.00" routeLength="1.00" timeLoss="0.28" maxSpeed="1.39"/>
        <ride waitingTime="518.00" vehicle="bus_43:0.0" depart="1277.00" arrival="1648.00" arrivalPos="16.46" duration="371.00" routeLength="4639.26" timeLoss="52.72"/>
    </personinfo>
    <personinfo id="1849631273.43.493" depart="493.00" type="DEFAULT_PEDTYPE">
        <walk depart="493.00" departPos="405.52" arrival="817.00" arrivalPos="0.00" duration="324.00" routeLength="405.52" timeLoss="32.03" maxSpeed="1.39"/>
        <ride waitingTime="81.00" vehicle="bus_43:0.1" depart="898.00" arrival="1655.00" arrivalPos="7.68" duration="757.00" routeLength="8476.89" timeLoss="205.64"/>
    </personinfo>
    <personinfo id="410467153.22.1092" depart="1092.00" type="DEFAULT_PEDTYPE">
        <walk depart="1092.00" departPos="8.01" arrival="1093.00" arrivalPos="9.01" duration="1.00" routeLength="1.00" timeLoss="0.28" maxSpeed="1.39"/>
        <ride waitingTime="395.00" vehicle="bus_22:0.2" depart="1488.00" arrival="1657.00" arrivalPos="18.81" duration="169.00" routeLength="1995.00" timeLoss="47.00"/>
    </personinfo>
    <personinfo id="410465917.22.761" depart="761.00" type="DEFAULT_PEDTYPE">
        <walk depart="761.00" departPos="21.70" arrival="762.00" arrivalPos="22.70" duration="1.00" routeLength="1.00" timeLoss="0.28" maxSpeed="1.39"/>
        <ride waitingTime="672.00" vehicle="bus_22:0.1" depart="1434.00" arrival="1664.00" arrivalPos="272.82" duration="230.00" routeLength="2186.81" timeLoss="46.18"/>
    </personinfo>
    <personinfo id="410465917.22.845" depart="845.00" type="DEFAULT_PEDTYPE">
        <walk depart="845.00" departPos="21.70" arrival="846.00" arrivalPos="22.70" duration="1.00" routeLength="1.00" timeLoss="0.28" maxSpeed="1.39"/>
        <ride waitingTime="588.00" vehicle="bus_22:0.1" depart="1434.00" arrival="1664.00" arrivalPos="272.82" duration="230.00" routeLength="2186.81" timeLoss="46.18"/>
    </personinfo>
    <personinfo id="410465917.22.1379" depart="1379.00" type="DEFAULT_PEDTYPE">
        <walk depart="1379.00" departPos="21.70" arrival="1380.00" arrivalPos="22.70" duration="1.00" routeLength="1.00" timeLoss="0.28" maxSpeed="1.39"/>
        <ride waitingTime="54.00" vehicle="bus_22:0.1" depart="1434.00" arrival="1664.00" arrivalPos="272.82" duration="230.00" routeLength="2186.81" timeLoss="46.18"/>
    </personinfo>
    <personinfo id="410465915.22.1299" depart="1299.00" type="DEFAULT_PEDTYPE">
        <walk depart="1299.00" departPos="130.08" arrival="1404.00" arrivalPos="0.00" duration="105.00" routeLength="130.08" timeLoss="11.34" maxSpeed="1.39"/>
        <ride waitingTime="71.00" vehicle="bus_22:0.1" depart="1475.00" arrival="1665.00" arrivalPos="272.82" duration="190.00" routeLength="1727.57" timeLoss="33.73"/>
    </personinfo>
    <tripinfo id="bus_43:0.0" depart="0.00" departLane="1111008091_0" departPos="12.10" departSpeed="0.00" departDelay="0.00" arrival="1681.00" arrivalLane="528461109_0" arrivalPos="176.67" arrivalSpeed="5.52" duration="1681.00" routeLength="21752.29" waitingTime="1.00" waitingCount="1" stopTime="13.00" timeLoss="233.59" rerouteNo="0" devices="tripinfo_bus_43:0.0 person_bus_43:0.0" vType="bus" speedFactor="1.00" vaporized=""/>
    <tripinfo id="bus_22:0.1" depart="600.00" departLane="543768663_0" departPos="7.80" departSpeed="0.00" departDelay="0.00" arrival="1696.00" arrivalLane="245934570#2_0" arrivalPos="422.97" arrivalSpeed="4.96" duration="1096.00" routeLength="12633.03" waitingTime="2.00" waitingCount="2" stopTime="19.00" timeLoss="204.84" rerouteNo="0" devices="tripinfo_bus_22:0.1 person_bus_22:0.1" vType="bus" speedFactor="1.00" vaporized=""/>
    <personinfo id="410475114.43.796" depart="796.00" type="DEFAULT_PEDTYPE">
        <walk depart="796.00" departPos="84.99" arrival="797.00" arrivalPos="85.99" duration="1.00" routeLength="1.00" timeLoss="0.28" maxSpeed="1.39"/>
        <ride waitingTime="487.00" vehicle="bus_43:0.1" depart="1284.00" arrival="1759.00" arrivalPos="45.48" duration="475.00" routeLength="5191.17" timeLoss="132.15"/>
    </personinfo>
    <personinfo id="1531005322.43.998" depart="998.00" type="DEFAULT_PEDTYPE">
        <walk depart="998.00" departPos="12.13" arrival="999.00" arrivalPos="13.13" duration="1.00" routeLength="1.00" timeLoss="0.28" maxSpeed="1.39"/>
        <ride waitingTime="315.00" vehicle="bus_43:0.1" depart="1314.00" arrival="1759.00" arrivalPos="45.48" duration="445.00" routeLength="4887.22" timeLoss="121.38"/>
    </personinfo>
    <personinfo id="410462291.43.193" depart="193.00" type="DEFAULT_PEDTYPE">
        <walk depart="193.00" departPos="407.86" arrival="518.00" arrivalPos="0.00" duration="325.00" routeLength="407.86" timeLoss="31.34" maxSpeed="1.39"/>
        <ride waitingTime="504.00" vehicle="bus_43:0.1" depart="1022.00" arrival="1795.00" arrivalPos="26.14" duration="773.00" routeLength="8704.73" timeLoss="203.66"/>
    </personinfo>
    <personinfo id="410483103.22.1385" depart="1385.00" type="DEFAULT_PEDTYPE">
        <walk depart="1385.00" departPos="165.36" arrival="1386.00" arrivalPos="166.36" duration="1.00" routeLength="1.00" timeLoss="0.28" maxSpeed="1.39"/>
        <ride waitingTime="247.00" vehicle="bus_22:0.2" depart="1633.00" arrival="1805.00" arrivalPos="107.55" duration="172.00" routeLength="2234.40" timeLoss="31.35"/>
    </personinfo>
    <personinfo id="410482564.43.1153" depart="1153.00" type="DEFAULT_PEDTYPE">
        <walk depart="1153.00" departPos="87.68" arrival="1154.00" arrivalPos="88.68" duration="1.00" routeLength="1.00" timeLoss="0.28" maxSpeed="1.39"/>
        <ride waitingTime="355.00" vehicle="bus_43:0.1" depart="1509.00" arrival="1807.00" arrivalPos="72.27" duration="298.00" routeLength="3023.52" timeLoss="86.32"/>
    </personinfo>
    <personinfo id="410486969.43.1523" depart="1523.00" type="DEFAULT_PEDTYPE">
        <walk depart="1523.00" departPos="0.12" arrival="1524.00" arrivalPos="1.12" duration="1.00" routeLength="1.00" timeLoss="0.28" maxSpeed="1.39"/>
        <ride waitingTime="265.00" vehicle="bus_43:0.2" depart="1789.00" arrival="1828.00" arrivalPos="45.59" duration="39.00" routeLength="400.73" timeLoss="10.80"/>
    </personinfo>
    <personinfo id="410482570.43.1456" depart="1456.00" type="DEFAULT_PEDTYPE">
        <walk depart="1456.00" departPos="91.56" arrival="1457.00" arrivalPos="92.56" duration="1.00" routeLength="1.00" timeLoss="0.28" maxSpeed="1.39"/>
        <ride waitingTime="83.00" vehicle="bus_43:0.1" depart="1540.00" arrival="1852.00" arrivalPos="24.51" duration="312.00" routeLength="3174.66" timeLoss="89.44"/>
    </personinfo>
    <personinfo id="410462266.43.1246" depart="1246.00" type="DEFAULT_PEDTYPE">
        <walk depart="1246.00" departPos="50.19" arrival="1247.00" arrivalPos="51.19" duration="1.00" routeLength="1.00" timeLoss="0.28" maxSpeed="1.39"/>
        <ride waitingTime="313.00" vehicle="bus_43:0.2" depart="1560.00" arrival="1852.00" arrivalPos="73.27" duration="292.00" routeLength="3094.94" timeLoss="91.86"/>
    </personinfo>
    <personinfo id="410462211.43.1475" depart="1475.00" type="DEFAULT_PEDTYPE">
        <walk depart="1475.00" departPos="18.63" arrival="1476.00" arrivalPos="19.63" duration="1.00" routeLength="1.00" timeLoss="0.28" maxSpeed="1.39"/>
        <ride waitingTime="137.00" vehicle="bus_43:0.2" depart="1613.00" arrival="1852.00" arrivalPos="73.27" duration="239.00" routeLength="2608.32" timeLoss="70.05"/>
    </personinfo>
    <personinfo id="410462266.43.1328" depart="1328.00" type="DEFAULT_PEDTYPE">
        <walk depart="1328.00" departPos="50.19" arrival="1329.00" arrivalPos="51.19" duration="1.00" routeLength="1.00" timeLoss="0.28" maxSpeed="1.39"/>
        <ride waitingTime="231.00" vehicle="bus_43:0.2" depart="1560.00" arrival="1944.00" arrivalPos="36.64" duration="384.00" routeLength="4243.89" timeLoss="113.94"/>
    </personinfo>
    <personinfo id="410462293.43.1380" depart="1380.00" type="DEFAULT_PEDTYPE">
        <walk depart="1380.00" departPos="10.48" arrival="1381.00" arrivalPos="11.48" duration="1.00" routeLength="1.00" timeLoss="0.28" maxSpeed="1.39"/>
        <ride waitingTime="196.00" vehicle="bus_43:0.2" depart="1577.00" arrival="1944.00" arrivalPos="36.64" duration="367.00" routeLength="4150.61" timeLoss="103.53"/>
    </personinfo>
    <personinfo id="1849631269.43.150" depart="150.00" type="DEFAULT_PEDTYPE">
        <walk depart="150.00" departPos="147.93" arrival="269.00" arrivalPos="0.00" duration="119.00" routeLength="147.93" timeLoss="12.49" maxSpeed="1.39"/>
        <ride waitingTime="550.00" vehicle="bus_43:0.1" depart="819.00" arrival="1955.00" arrivalPos="13.93" duration="1136.00" routeLength="12458.00" timeLoss="300.20"/>
    </personinfo>
    <personinfo id="410478271.43.1253" depart="1253.00" type="DEFAULT_PEDTYPE">
        <walk depart="1253.00" departPos="126.46" arrival="1355.00" arrivalPos="0.00" duration="102.00" routeLength="126.46" timeLoss="10.95" maxSpeed="1.39"/>
        <ride waitingTime="535.00" vehicle="bus_43:0.1" depart="1890.00" arrival="1955.00" arrivalPos="13.93" duration="65.00" routeLength="705.10" timeLoss="11.31"/>
    </personinfo>
    <personinfo id="1849631269.43.1011" depart="1011.00" type="DEFAULT_PEDTYPE">
        <walk depart="1011.00" departPos="147.93" arrival="1130.00" arrivalPos="0.00" duration="119.00" routeLength="147.93" timeLoss="12.49" maxSpeed="1.39"/>
        <ride waitingTime="292.00" vehicle="bus_43:0.2" depart="1422.00" arrival="1975.00" arrivalPos="181.33" duration="553.00" routeLength="5996.75" timeLoss="159.96"/>
    </personinfo>
    <personinfo id="410459901.22.672" depart="672.00" type="DEFAULT_PEDTYPE">
        <walk depart="672.00" departPos="545.30" arrival="1112.00" arrivalPos="0.00" duration="440.00" routeLength="545.30" timeLoss="47.38" maxSpeed="1.39"/>
        <ride waitingTime="168.00" vehicle="bus_22:0.2" depart="1280.00" arrival="1982.00" arrivalPos="141.89" duration="702.00" routeLength="8732.24" timeLoss="161.12"/>
    </personinfo>
    <personinfo id="410459651.22.1015" depart="1015.00" type="DEFAULT_PEDTYPE">
        <walk depart="1015.00" departPos="15.18" arrival="1016.00" arrivalPos="16.18" duration="1.00" routeLength="1.00" timeLoss="0.28" maxSpeed="1.39"/>
        <ride waitingTime="415.00" vehicle="bus_22:0.2" depart="1431.00" arrival="2002.00" arrivalPos="42.17" duration="571.00" routeLength="7097.79" timeLoss="125.09"/>
    </personinfo>
    <personinfo id="410462103.22.1067" depart="1067.00" type="DEFAULT_PEDTYPE">
        <walk depart="1067.00" departPos="11.46" arrival="1068.00" arrivalPos="12.46" duration="1.00" routeLength="1.00" timeLoss="0.28" maxSpeed="1.39"/>
        <ride waitingTime="461.00" vehicle="bus_22:0.2" depart="1529.00" arrival="2002.00" arrivalPos="42.17" duration="473.00" routeLength="5804.09" timeLoss="100.06"/>
    </personinfo>
    <personinfo id="410462211.43.805" depart="805.00" type="DEFAULT_PEDTYPE">
        <walk depart="805.00" departPos="18.63" arrival="806.00" arrivalPos="19.63" duration="1.00" routeLength="1.00" timeLoss="0.28" maxSpeed="1.39"/>
        <ride waitingTime="185.00" vehicle="bus_43:0.1" depart="991.00" arrival="2015.00" arrivalPos="64.56" duration="1024.00" routeLength="11239.07" timeLoss="271.98"/>
    </personinfo>
</tripinfos>
