<?xml version="1.0" encoding="UTF-8"?>

<!-- generated on 2024-05-07 22:41:04 by Eclipse SUMO sumo Version 1.14.1
<configuration xmlns:xsi="http://www.w3.org/2001/XMLSchema-instance" xsi:noNamespaceSchemaLocation="http://sumo.dlr.de/xsd/sumoConfiguration.xsd">

    <input>
        <net-file value="singapore/sumo/singapore.net.xml"/>
        <route-files value="singapore/sumo/busFlows.rou.xml"/>
        <additional-files value="singapore/sumo/busstops.xml"/>
    </input>

    <output>
        <tripinfo-output value="tripinfo.xml"/>
    </output>

    <processing>
        <no-internal-links value="true"/>
        <time-to-teleport value="550"/>
    </processing>

    <traci_server>
        <remote-port value="50644"/>
    </traci_server>

</configuration>
-->

<tripinfos xmlns:xsi="http://www.w3.org/2001/XMLSchema-instance" xsi:noNamespaceSchemaLocation="http://sumo.dlr.de/xsd/tripinfo_file.xsd">
    <personinfo id="410462293.43.1435" depart="1435.00" type="DEFAULT_PEDTYPE">
        <walk depart="1435.00" departPos="10.48" arrival="1436.00" arrivalPos="11.48" duration="1.00" routeLength="1.00" timeLoss="0.28" maxSpeed="1.39"/>
        <ride waitingTime="107.00" vehicle="bus_43:0.0" depart="1543.00" arrival="1659.00" arrivalPos="29.63" duration="116.00" routeLength="425.22" timeLoss="11.29"/>
    </personinfo>
    <personinfo id="410474348.43.673" depart="673.00" type="DEFAULT_PEDTYPE">
        <walk depart="673.00" departPos="25.59" arrival="674.00" arrivalPos="26.59" duration="1.00" routeLength="1.00" timeLoss="0.28" maxSpeed="1.39"/>
        <ride waitingTime="581.00" vehicle="bus_43:0.1" depart="1255.00" arrival="1698.00" arrivalPos="10.65" duration="443.00" routeLength="1652.36" timeLoss="38.00"/>
    </personinfo>
    <personinfo id="410475114.43.292" depart="292.00" type="DEFAULT_PEDTYPE">
        <walk depart="292.00" departPos="84.99" arrival="293.00" arrivalPos="85.99" duration="1.00" routeLength="1.00" timeLoss="0.28" maxSpeed="1.39"/>
        <ride waitingTime="883.00" vehicle="bus_22:0.0" depart="1176.00" arrival="1820.00" arrivalPos="83.08" duration="644.00" routeLength="2076.56" timeLoss="134.56"/>
    </personinfo>
    <personinfo id="410462293.43.1031" depart="1031.00" type="DEFAULT_PEDTYPE">
        <walk depart="1031.00" departPos="10.48" arrival="1032.00" arrivalPos="11.48" duration="1.00" routeLength="1.00" timeLoss="0.28" maxSpeed="1.39"/>
        <ride waitingTime="511.00" vehicle="bus_43:0.0" depart="1543.00" arrival="1837.00" arrivalPos="10.16" duration="294.00" routeLength="747.19" timeLoss="19.77"/>
    </personinfo>
    <personinfo id="410462101.22.329" depart="329.00" type="DEFAULT_PEDTYPE">
        <walk depart="329.00" departPos="11.46" arrival="330.00" arrivalPos="12.46" duration="1.00" routeLength="1.00" timeLoss="0.28" maxSpeed="1.39"/>
        <ride waitingTime="635.00" vehicle="bus_22:0.0" depart="965.00" arrival="1846.00" arrivalPos="159.79" duration="881.00" routeLength="2915.18" timeLoss="161.02"/>
    </personinfo>
    <personinfo id="410482568.22.1551" depart="1551.00" type="DEFAULT_PEDTYPE">
        <walk depart="1551.00" departPos="3.17" arrival="1552.00" arrivalPos="4.17" duration="1.00" routeLength="1.00" timeLoss="0.28" maxSpeed="1.39"/>
        <ride waitingTime="151.00" vehicle="bus_22:0.0" depart="1703.00" arrival="1846.00" arrivalPos="159.79" duration="143.00" routeLength="516.18" timeLoss="13.11"/>
    </personinfo>
    <personinfo id="410483103.22.368" depart="368.00" type="DEFAULT_PEDTYPE">
        <walk depart="368.00" departPos="165.36" arrival="369.00" arrivalPos="166.36" duration="1.00" routeLength="1.00" timeLoss="0.28" maxSpeed="1.39"/>
        <ride waitingTime="1060.00" vehicle="bus_22:0.0" depart="1429.00" arrival="2001.00" arrivalPos="98.68" duration="572.00" routeLength="2088.57" timeLoss="54.64"/>
    </personinfo>
    <personinfo id="410459904.22.677" depart="677.00" type="DEFAULT_PEDTYPE">
        <walk depart="677.00" departPos="19.22" arrival="678.00" arrivalPos="20.22" duration="1.00" routeLength="1.00" timeLoss="0.28" maxSpeed="1.39"/>
        <ride waitingTime="243.00" vehicle="bus_22:0.1" depart="921.00" arrival="2037.00" arrivalPos="95.95" duration="1116.00" routeLength="3248.80" timeLoss="291.65"/>
    </personinfo>
    <personinfo id="410462103.22.1443" depart="1443.00" type="DEFAULT_PEDTYPE">
        <walk depart="1443.00" departPos="51.46" arrival="1444.00" arrivalPos="52.46" duration="1.00" routeLength="1.00" timeLoss="0.28" maxSpeed="1.39"/>
        <ride waitingTime="176.00" vehicle="bus_22:0.1" depart="1620.00" arrival="2037.00" arrivalPos="95.95" duration="417.00" routeLength="721.93" timeLoss="239.94"/>
    </personinfo>
    <personinfo id="410475114.22.1770" depart="1770.00" type="DEFAULT_PEDTYPE">
        <walk depart="1770.00" departPos="84.99" arrival="1771.00" arrivalPos="85.99" duration="1.00" routeLength="1.00" timeLoss="0.28" maxSpeed="1.39"/>
        <ride waitingTime="268.00" vehicle="bus_22:0.1" depart="2039.00" arrival="2128.00" arrivalPos="24.58" duration="89.00" routeLength="320.37" timeLoss="9.89"/>
    </personinfo>
    <personinfo id="410482564.22.1788" depart="1788.00" type="DEFAULT_PEDTYPE">
        <walk depart="1788.00" departPos="87.68" arrival="1789.00" arrivalPos="88.68" duration="1.00" routeLength="1.00" timeLoss="0.28" maxSpeed="1.39"/>
        <ride waitingTime="282.00" vehicle="bus_22:0.0" depart="2071.00" arrival="2143.00" arrivalPos="102.56" duration="72.00" routeLength="264.71" timeLoss="7.45"/>
    </personinfo>
    <personinfo id="1531005322.22.1853" depart="1853.00" type="DEFAULT_PEDTYPE">
        <walk depart="1853.00" departPos="12.13" arrival="1854.00" arrivalPos="13.13" duration="1.00" routeLength="1.00" timeLoss="0.28" maxSpeed="1.39"/>
        <ride waitingTime="276.00" vehicle="bus_22:0.1" depart="2130.00" arrival="2216.00" arrivalPos="176.36" duration="86.00" routeLength="315.59" timeLoss="9.04"/>
    </personinfo>
    <personinfo id="410482520.43.1203" depart="1203.00" type="DEFAULT_PEDTYPE">
        <walk depart="1203.00" departPos="2.85" arrival="1204.00" arrivalPos="3.85" duration="1.00" routeLength="1.00" timeLoss="0.28" maxSpeed="1.39"/>
        <ride waitingTime="294.00" vehicle="bus_22:0.0" depart="1498.00" arrival="2278.00" arrivalPos="258.29" duration="780.00" routeLength="2263.97" timeLoss="59.86"/>
    </personinfo>
    <personinfo id="1847853709.43.742" depart="742.00" type="DEFAULT_PEDTYPE">
        <walk depart="742.00" departPos="16.23" arrival="743.00" arrivalPos="17.23" duration="1.00" routeLength="1.00" timeLoss="0.28" maxSpeed="1.39"/>
        <ride waitingTime="518.00" vehicle="bus_43:0.2" depart="1261.00" arrival="2437.00" arrivalPos="61.19" duration="1176.00" routeLength="4458.68" timeLoss="88.53"/>
    </personinfo>
    <personinfo id="410482568.22.95" depart="95.00" type="DEFAULT_PEDTYPE">
        <walk depart="95.00" departPos="3.17" arrival="96.00" arrivalPos="4.17" duration="1.00" routeLength="1.00" timeLoss="0.28" maxSpeed="1.39"/>
        <ride waitingTime="1607.00" vehicle="bus_22:0.0" depart="1703.00" arrival="2459.00" arrivalPos="29.18" duration="756.00" routeLength="2181.08" timeLoss="55.07"/>
    </personinfo>
    <personinfo id="410460005.22.163" depart="163.00" type="DEFAULT_PEDTYPE">
        <walk depart="163.00" departPos="286.81" arrival="394.00" arrivalPos="0.00" duration="231.00" routeLength="286.81" timeLoss="24.50" maxSpeed="1.39"/>
        <ride waitingTime="208.00" vehicle="bus_22:0.1" depart="602.00" arrival="2518.00" arrivalPos="14.14" duration="1916.00" routeLength="6052.95" timeLoss="367.74"/>
    </personinfo>
    <personinfo id="410471030.22.2450" depart="2450.00" type="DEFAULT_PEDTYPE">
        <walk depart="2450.00" departPos="18.18" arrival="2451.00" arrivalPos="19.18" duration="1.00" routeLength="1.00" timeLoss="0.28" maxSpeed="1.39"/>
        <ride waitingTime="9.00" vehicle="bus_22:0.0" depart="2460.00" arrival="2605.00" arrivalPos="20.98" duration="145.00" routeLength="531.13" timeLoss="14.46"/>
    </personinfo>
    <personinfo id="410475114.22.1404" depart="1404.00" type="DEFAULT_PEDTYPE">
        <walk depart="1404.00" departPos="84.99" arrival="1405.00" arrivalPos="85.99" duration="1.00" routeLength="1.00" timeLoss="0.28" maxSpeed="1.39"/>
        <ride waitingTime="634.00" vehicle="bus_22:0.1" depart="2039.00" arrival="2639.00" arrivalPos="83.10" duration="600.00" routeLength="2076.66" timeLoss="58.54"/>
    </personinfo>
    <personinfo id="1531005322.22.1971" depart="1971.00" type="DEFAULT_PEDTYPE">
        <walk depart="1971.00" departPos="12.13" arrival="1972.00" arrivalPos="13.13" duration="1.00" routeLength="1.00" timeLoss="0.28" maxSpeed="1.39"/>
        <ride waitingTime="158.00" vehicle="bus_22:0.1" depart="2130.00" arrival="2639.00" arrivalPos="83.10" duration="509.00" routeLength="1756.29" timeLoss="48.66"/>
    </personinfo>
    <personinfo id="1531005322.43.1026" depart="1026.00" type="DEFAULT_PEDTYPE">
        <walk depart="1026.00" departPos="12.13" arrival="1027.00" arrivalPos="13.13" duration="1.00" routeLength="1.00" timeLoss="0.28" maxSpeed="1.39"/>
        <ride waitingTime="1103.00" vehicle="bus_22:0.1" depart="2130.00" arrival="2663.00" arrivalPos="159.78" duration="533.00" routeLength="1833.02" timeLoss="51.96"/>
    </personinfo>
    <personinfo id="1849631273.43.325" depart="325.00" type="DEFAULT_PEDTYPE">
        <walk depart="325.00" departPos="413.46" arrival="657.00" arrivalPos="0.00" duration="332.00" routeLength="413.46" timeLoss="34.31" maxSpeed="1.39"/>
        <ride waitingTime="513.00" vehicle="bus_43:0.0" depart="1170.00" arrival="2701.00" arrivalPos="11.11" duration="1531.00" routeLength="3291.88" timeLoss="87.15"/>
    </personinfo>
    <personinfo id="410459897.22.2433" depart="2433.00" type="DEFAULT_PEDTYPE">
        <walk depart="2433.00" departPos="23.17" arrival="2434.00" arrivalPos="24.17" duration="1.00" routeLength="1.00" timeLoss="0.28" maxSpeed="1.39"/>
        <ride waitingTime="256.00" vehicle="bus_22:0.4" depart="2690.00" arrival="2836.00" arrivalPos="48.70" duration="146.00" routeLength="522.59" timeLoss="17.56"/>
    </personinfo>
    <personinfo id="410462103.22.524" depart="524.00" type="DEFAULT_PEDTYPE">
        <walk depart="524.00" departPos="51.46" arrival="525.00" arrivalPos="52.46" duration="1.00" routeLength="1.00" timeLoss="0.28" maxSpeed="1.39"/>
        <ride waitingTime="456.00" vehicle="bus_22:0.0" depart="981.00" arrival="2886.00" arrivalPos="37.17" duration="1905.00" routeLength="6131.32" timeLoss="233.66"/>
    </personinfo>
    <personinfo id="410462211.43.1594" depart="1594.00" type="DEFAULT_PEDTYPE">
        <walk depart="1594.00" departPos="18.63" arrival="1595.00" arrivalPos="19.63" duration="1.00" routeLength="1.00" timeLoss="0.28" maxSpeed="1.39"/>
        <ride waitingTime="155.00" vehicle="bus_43:0.0" depart="1750.00" arrival="2910.00" arrivalPos="40.59" duration="1160.00" routeLength="2601.42" timeLoss="67.54"/>
    </personinfo>
    <personinfo id="410459897.22.656" depart="656.00" type="DEFAULT_PEDTYPE">
        <walk depart="656.00" departPos="23.17" arrival="657.00" arrivalPos="24.17" duration="1.00" routeLength="1.00" timeLoss="0.28" maxSpeed="1.39"/>
        <ride waitingTime="234.00" vehicle="bus_22:0.1" depart="891.00" arrival="2917.00" arrivalPos="102.56" duration="2026.00" routeLength="6329.26" timeLoss="378.35"/>
    </personinfo>
    <personinfo id="1849631269.43.959" depart="959.00" type="DEFAULT_PEDTYPE">
        <walk depart="959.00" departPos="160.44" arrival="1087.00" arrivalPos="0.00" duration="128.00" routeLength="160.44" timeLoss="12.48" maxSpeed="1.39"/>
        <ride waitingTime="343.00" vehicle="bus_43:0.1" depart="1430.00" arrival="2969.00" arrivalPos="29.59" duration="1539.00" routeLength="4050.98" timeLoss="96.00"/>
    </personinfo>
    <personinfo id="410462103.22.1996" depart="1996.00" type="DEFAULT_PEDTYPE">
        <walk depart="1996.00" departPos="51.46" arrival="1997.00" arrivalPos="52.46" duration="1.00" routeLength="1.00" timeLoss="0.28" maxSpeed="1.39"/>
        <ride waitingTime="290.00" vehicle="bus_22:0.2" depart="2287.00" arrival="2974.00" arrivalPos="31.75" duration="687.00" routeLength="2163.07" timeLoss="159.43"/>
    </personinfo>
    <personinfo id="410462211.43.2671" depart="2671.00" type="DEFAULT_PEDTYPE">
        <walk depart="2671.00" departPos="18.63" arrival="2672.00" arrivalPos="19.63" duration="1.00" routeLength="1.00" timeLoss="0.28" maxSpeed="1.39"/>
        <ride waitingTime="23.00" vehicle="bus_43:0.2" depart="2695.00" arrival="3056.00" arrivalPos="205.31" duration="361.00" routeLength="1051.93" timeLoss="26.48"/>
    </personinfo>
    <personinfo id="410480716.22.705" depart="705.00" type="DEFAULT_PEDTYPE">
        <walk depart="705.00" departPos="9.98" arrival="706.00" arrivalPos="10.98" duration="1.00" routeLength="1.00" timeLoss="0.28" maxSpeed="1.39"/>
        <ride waitingTime="1900.00" vehicle="bus_22:0.0" depart="2606.00" arrival="3080.00" arrivalPos="39.39" duration="474.00" routeLength="1762.22" timeLoss="42.22"/>
    </personinfo>
    <personinfo id="410462103.22.2194" depart="2194.00" type="DEFAULT_PEDTYPE">
        <walk depart="2194.00" departPos="51.46" arrival="2195.00" arrivalPos="52.46" duration="1.00" routeLength="1.00" timeLoss="0.28" maxSpeed="1.39"/>
        <ride waitingTime="92.00" vehicle="bus_22:0.2" depart="2287.00" arrival="3120.00" arrivalPos="14.16" duration="833.00" routeLength="2358.99" timeLoss="166.65"/>
    </personinfo>
    <personinfo id="410459897.22.869" depart="869.00" type="DEFAULT_PEDTYPE">
        <walk depart="869.00" departPos="23.17" arrival="870.00" arrivalPos="24.17" duration="1.00" routeLength="1.00" timeLoss="0.28" maxSpeed="1.39"/>
        <ride waitingTime="21.00" vehicle="bus_22:0.1" depart="891.00" arrival="3122.00" arrivalPos="10.12" duration="2231.00" routeLength="6806.36" timeLoss="388.99"/>
    </personinfo>
    <personinfo id="4430976208.43.149" depart="149.00" type="DEFAULT_PEDTYPE">
        <walk depart="149.00" departPos="18.61" arrival="150.00" arrivalPos="19.61" duration="1.00" routeLength="1.00" timeLoss="0.28" maxSpeed="1.39"/>
        <ride waitingTime="2481.00" vehicle="bus_43:0.0" depart="2631.00" arrival="3163.00" arrivalPos="108.27" duration="532.00" routeLength="925.15" timeLoss="31.39"/>
    </personinfo>
    <personinfo id="410480724.22.250" depart="250.00" type="DEFAULT_PEDTYPE">
        <walk depart="250.00" departPos="26.17" arrival="251.00" arrivalPos="27.17" duration="1.00" routeLength="1.00" timeLoss="0.28" maxSpeed="1.39"/>
        <ride waitingTime="2636.00" vehicle="bus_22:0.0" depart="2887.00" arrival="3191.00" arrivalPos="32.69" duration="304.00" routeLength="1097.46" timeLoss="32.36"/>
    </personinfo>
    <personinfo id="1531005322.43.105" depart="105.00" type="DEFAULT_PEDTYPE">
        <walk depart="105.00" departPos="12.13" arrival="106.00" arrivalPos="13.13" duration="1.00" routeLength="1.00" timeLoss="0.28" maxSpeed="1.39"/>
        <ride waitingTime="2024.00" vehicle="bus_22:0.1" depart="2130.00" arrival="3219.00" arrivalPos="29.17" duration="1089.00" routeLength="3497.91" timeLoss="91.90"/>
    </personinfo>
    <personinfo id="410459897.22.1049" depart="1049.00" type="DEFAULT_PEDTYPE">
        <walk depart="1049.00" departPos="23.17" arrival="1050.00" arrivalPos="24.17" duration="1.00" routeLength="1.00" timeLoss="0.28" maxSpeed="1.39"/>
        <ride waitingTime="444.00" vehicle="bus_22:0.2" depart="1494.00" arrival="3239.00" arrivalPos="83.08" duration="1745.00" routeLength="5416.89" timeLoss="236.87"/>
    </personinfo>
    <personinfo id="410460005.22.2206" depart="2206.00" type="DEFAULT_PEDTYPE">
        <walk depart="2206.00" departPos="286.81" arrival="2437.00" arrivalPos="0.00" duration="231.00" routeLength="286.81" timeLoss="24.50" maxSpeed="1.39"/>
        <ride waitingTime="566.00" vehicle="bus_22:0.5" depart="3003.00" arrival="3319.00" arrivalPos="30.21" duration="316.00" routeLength="1167.12" timeLoss="29.36"/>
    </personinfo>
    <personinfo id="410482520.22.363" depart="363.00" type="DEFAULT_PEDTYPE">
        <walk depart="363.00" departPos="2.85" arrival="364.00" arrivalPos="3.85" duration="1.00" routeLength="1.00" timeLoss="0.28" maxSpeed="1.39"/>
        <ride waitingTime="1134.00" vehicle="bus_22:0.0" depart="1498.00" arrival="3325.00" arrivalPos="10.73" duration="1827.00" routeLength="6105.14" timeLoss="155.03"/>
    </personinfo>
    <personinfo id="410480716.22.332" depart="332.00" type="DEFAULT_PEDTYPE">
        <walk depart="332.00" departPos="9.98" arrival="333.00" arrivalPos="10.98" duration="1.00" routeLength="1.00" timeLoss="0.28" maxSpeed="1.39"/>
        <ride waitingTime="2273.00" vehicle="bus_22:0.0" depart="2606.00" arrival="3325.00" arrivalPos="10.73" duration="719.00" routeLength="2636.61" timeLoss="65.96"/>
    </personinfo>
    <personinfo id="410464248.22.684" depart="684.00" type="DEFAULT_PEDTYPE">
        <walk depart="684.00" departPos="23.64" arrival="685.00" arrivalPos="24.64" duration="1.00" routeLength="1.00" timeLoss="0.28" maxSpeed="1.39"/>
        <ride waitingTime="2289.00" vehicle="bus_22:0.0" depart="2974.00" arrival="3326.00" arrivalPos="10.73" duration="352.00" routeLength="1264.73" timeLoss="34.54"/>
    </personinfo>
    <personinfo id="410465917.22.3064" depart="3064.00" type="DEFAULT_PEDTYPE">
        <walk depart="3064.00" departPos="21.70" arrival="3065.00" arrivalPos="22.70" duration="1.00" routeLength="1.00" timeLoss="0.28" maxSpeed="1.39"/>
        <ride waitingTime="128.00" vehicle="bus_22:0.0" depart="3193.00" arrival="3326.00" arrivalPos="10.73" duration="133.00" routeLength="479.09" timeLoss="12.15"/>
    </personinfo>
    <personinfo id="410462103.22.2858" depart="2858.00" type="DEFAULT_PEDTYPE">
        <walk depart="2858.00" departPos="51.46" arrival="2859.00" arrivalPos="52.46" duration="1.00" routeLength="1.00" timeLoss="0.28" maxSpeed="1.39"/>
        <ride waitingTime="16.00" vehicle="bus_22:0.3" depart="2875.00" arrival="3350.00" arrivalPos="24.57" duration="475.00" routeLength="1042.19" timeLoss="220.82"/>
    </personinfo>
    <personinfo id="410459897.22.604" depart="604.00" type="DEFAULT_PEDTYPE">
        <walk depart="604.00" departPos="23.17" arrival="605.00" arrivalPos="24.17" duration="1.00" routeLength="1.00" timeLoss="0.28" maxSpeed="1.39"/>
        <ride waitingTime="286.00" vehicle="bus_22:0.1" depart="891.00" arrival="3364.00" arrivalPos="20.97" duration="2473.00" routeLength="7689.57" timeLoss="413.59"/>
    </personinfo>
    <personinfo id="410462291.43.530" depart="530.00" type="DEFAULT_PEDTYPE">
        <walk depart="530.00" departPos="415.85" arrival="862.00" arrivalPos="0.00" duration="332.00" routeLength="415.85" timeLoss="32.59" maxSpeed="1.39"/>
        <ride waitingTime="1066.00" vehicle="bus_43:0.0" depart="1928.00" arrival="3393.00" arrivalPos="33.15" duration="1465.00" routeLength="3039.20" timeLoss="83.80"/>
    </personinfo>
    <personinfo id="410460005.22.2464" depart="2464.00" type="DEFAULT_PEDTYPE">
        <walk depart="2464.00" departPos="286.81" arrival="2694.00" arrivalPos="0.00" duration="230.00" routeLength="286.81" timeLoss="23.50" maxSpeed="1.39"/>
        <ride waitingTime="309.00" vehicle="bus_22:0.5" depart="3003.00" arrival="3438.00" arrivalPos="48.69" duration="435.00" routeLength="1598.17" timeLoss="42.23"/>
    </personinfo>
    <personinfo id="410460005.22.1312" depart="1312.00" type="DEFAULT_PEDTYPE">
        <walk depart="1312.00" departPos="286.81" arrival="1543.00" arrivalPos="0.00" duration="231.00" routeLength="286.81" timeLoss="24.50" maxSpeed="1.39"/>
        <ride waitingTime="259.00" vehicle="bus_22:0.3" depart="1802.00" arrival="3438.00" arrivalPos="176.33" duration="1636.00" routeLength="5051.69" timeLoss="318.92"/>
    </personinfo>
    <personinfo id="410467153.22.2103" depart="2103.00" type="DEFAULT_PEDTYPE">
        <walk depart="2103.00" departPos="8.01" arrival="2104.00" arrivalPos="9.01" duration="1.00" routeLength="1.00" timeLoss="0.28" maxSpeed="1.39"/>
        <ride waitingTime="544.00" vehicle="bus_22:0.3" depart="2648.00" arrival="3438.00" arrivalPos="176.33" duration="790.00" routeLength="1899.30" timeLoss="245.78"/>
    </personinfo>
    <personinfo id="410465917.22.1377" depart="1377.00" type="DEFAULT_PEDTYPE">
        <walk depart="1377.00" departPos="21.70" arrival="1378.00" arrivalPos="22.70" duration="1.00" routeLength="1.00" timeLoss="0.28" maxSpeed="1.39"/>
        <ride waitingTime="1815.00" vehicle="bus_22:0.0" depart="3193.00" arrival="3453.00" arrivalPos="10.27" duration="260.00" routeLength="936.85" timeLoss="24.51"/>
    </personinfo>
    <personinfo id="410459904.22.890" depart="890.00" type="DEFAULT_PEDTYPE">
        <walk depart="890.00" departPos="19.22" arrival="891.00" arrivalPos="20.22" duration="1.00" routeLength="1.00" timeLoss="0.28" maxSpeed="1.39"/>
        <ride waitingTime="30.00" vehicle="bus_22:0.1" depart="921.00" arrival="3459.00" arrivalPos="195.20" duration="2538.00" routeLength="7946.46" timeLoss="416.94"/>
    </personinfo>
    <personinfo id="410462101.22.1966" depart="1966.00" type="DEFAULT_PEDTYPE">
        <walk depart="1966.00" departPos="11.46" arrival="1967.00" arrivalPos="12.46" duration="1.00" routeLength="1.00" timeLoss="0.28" maxSpeed="1.39"/>
        <ride waitingTime="305.00" vehicle="bus_22:0.2" depart="2272.00" arrival="3483.00" arrivalPos="102.56" duration="1211.00" routeLength="3750.90" timeLoss="201.19"/>
    </personinfo>
    <personinfo id="1849631269.43.2691" depart="2691.00" type="DEFAULT_PEDTYPE">
        <walk depart="2691.00" departPos="160.44" arrival="2821.00" arrivalPos="0.00" duration="130.00" routeLength="160.44" timeLoss="14.48" maxSpeed="1.39"/>
        <ride waitingTime="402.00" vehicle="bus_43:0.4" depart="3223.00" arrival="3493.00" arrivalPos="10.63" duration="270.00" routeLength="1009.75" timeLoss="22.75"/>
    </personinfo>
    <personinfo id="410459904.22.698" depart="698.00" type="DEFAULT_PEDTYPE">
        <walk depart="698.00" departPos="19.22" arrival="699.00" arrivalPos="20.22" duration="1.00" routeLength="1.00" timeLoss="0.28" maxSpeed="1.39"/>
        <ride waitingTime="222.00" vehicle="bus_22:0.1" depart="921.00" arrival="3497.00" arrivalPos="323.22" duration="2576.00" routeLength="8074.48" timeLoss="422.72"/>
    </personinfo>
    <personinfo id="410462101.22.2449" depart="2449.00" type="DEFAULT_PEDTYPE">
        <walk depart="2449.00" departPos="11.46" arrival="2450.00" arrivalPos="12.46" duration="1.00" routeLength="1.00" timeLoss="0.28" maxSpeed="1.39"/>
        <ride waitingTime="411.00" vehicle="bus_22:0.3" depart="2861.00" arrival="3509.00" arrivalPos="13.85" duration="648.00" routeLength="1642.67" timeLoss="241.38"/>
    </personinfo>
    <personinfo id="410482570.43.3458" depart="3458.00" type="DEFAULT_PEDTYPE">
        <walk depart="3458.00" departPos="91.56" arrival="3459.00" arrivalPos="92.56" duration="1.00" routeLength="1.00" timeLoss="0.28" maxSpeed="1.39"/>
        <ride waitingTime="26.00" vehicle="bus_22:0.2" depart="3485.00" arrival="3530.00" arrivalPos="258.30" duration="45.00" routeLength="155.79" timeLoss="7.02"/>
    </personinfo>
    <personinfo id="1849631273.43.593" depart="593.00" type="DEFAULT_PEDTYPE">
        <walk depart="593.00" departPos="413.46" arrival="923.00" arrivalPos="0.00" duration="330.00" routeLength="413.46" timeLoss="32.31" maxSpeed="1.39"/>
        <ride waitingTime="247.00" vehicle="bus_43:0.0" depart="1170.00" arrival="3584.00" arrivalPos="95.97" duration="2414.00" routeLength="4849.00" timeLoss="135.40"/>
    </personinfo>
    <personinfo id="410462293.43.594" depart="594.00" type="DEFAULT_PEDTYPE">
        <walk depart="594.00" departPos="10.48" arrival="595.00" arrivalPos="11.48" duration="1.00" routeLength="1.00" timeLoss="0.28" maxSpeed="1.39"/>
        <ride waitingTime="948.00" vehicle="bus_43:0.0" depart="1543.00" arrival="3585.00" arrivalPos="95.97" duration="2042.00" routeLength="4151.18" timeLoss="114.60"/>
    </personinfo>
    <personinfo id="410486969.43.2461" depart="2461.00" type="DEFAULT_PEDTYPE">
        <walk depart="2461.00" departPos="0.12" arrival="2462.00" arrivalPos="1.12" duration="1.00" routeLength="1.00" timeLoss="0.28" maxSpeed="1.39"/>
        <ride waitingTime="330.00" vehicle="bus_43:0.0" depart="2792.00" arrival="3585.00" arrivalPos="95.97" duration="793.00" routeLength="1557.14" timeLoss="48.26"/>
    </personinfo>
    <personinfo id="410482570.22.2544" depart="2544.00" type="DEFAULT_PEDTYPE">
        <walk depart="2544.00" departPos="91.56" arrival="2545.00" arrivalPos="92.56" duration="1.00" routeLength="1.00" timeLoss="0.28" maxSpeed="1.39"/>
        <ride waitingTime="450.00" vehicle="bus_22:0.1" depart="2995.00" arrival="3622.00" arrivalPos="138.89" duration="627.00" routeLength="2294.90" timeLoss="62.31"/>
    </personinfo>
    <personinfo id="410482570.22.2625" depart="2625.00" type="DEFAULT_PEDTYPE">
        <walk depart="2625.00" departPos="91.56" arrival="2626.00" arrivalPos="92.56" duration="1.00" routeLength="1.00" timeLoss="0.28" maxSpeed="1.39"/>
        <ride waitingTime="369.00" vehicle="bus_22:0.1" depart="2995.00" arrival="3622.00" arrivalPos="138.89" duration="627.00" routeLength="2294.90" timeLoss="62.31"/>
    </personinfo>
    <personinfo id="410486991.43.3492" depart="3492.00" type="DEFAULT_PEDTYPE">
        <walk depart="3492.00" departPos="194.33" arrival="3493.00" arrivalPos="195.33" duration="1.00" routeLength="1.00" timeLoss="0.28" maxSpeed="1.39"/>
        <ride waitingTime="46.00" vehicle="bus_43:0.3" depart="3539.00" arrival="3663.00" arrivalPos="60.87" duration="124.00" routeLength="458.97" timeLoss="12.07"/>
    </personinfo>
    <personinfo id="410486955.43.3252" depart="3252.00" type="DEFAULT_PEDTYPE">
        <walk depart="3252.00" departPos="49.88" arrival="3253.00" arrivalPos="50.88" duration="1.00" routeLength="1.00" timeLoss="0.28" maxSpeed="1.39"/>
        <ride waitingTime="12.00" vehicle="bus_43:0.2" depart="3265.00" arrival="3712.00" arrivalPos="108.29" duration="447.00" routeLength="1332.57" timeLoss="31.02"/>
    </personinfo>
    <personinfo id="410480716.22.2080" depart="2080.00" type="DEFAULT_PEDTYPE">
        <walk depart="2080.00" departPos="9.98" arrival="2081.00" arrivalPos="10.98" duration="1.00" routeLength="1.00" timeLoss="0.28" maxSpeed="1.39"/>
        <ride waitingTime="525.00" vehicle="bus_22:0.0" depart="2606.00" arrival="3740.00" arrivalPos="80.49" duration="1134.00" routeLength="3818.41" timeLoss="95.73"/>
    </personinfo>
    <personinfo id="410465917.22.664" depart="664.00" type="DEFAULT_PEDTYPE">
        <walk depart="664.00" departPos="21.70" arrival="665.00" arrivalPos="22.70" duration="1.00" routeLength="1.00" timeLoss="0.28" maxSpeed="1.39"/>
        <ride waitingTime="2528.00" vehicle="bus_22:0.0" depart="3193.00" arrival="3740.00" arrivalPos="80.49" duration="547.00" routeLength="1660.91" timeLoss="41.92"/>
    </personinfo>
    <personinfo id="410465917.22.2334" depart="2334.00" type="DEFAULT_PEDTYPE">
        <walk depart="2334.00" departPos="21.70" arrival="2335.00" arrivalPos="22.70" duration="1.00" routeLength="1.00" timeLoss="0.28" maxSpeed="1.39"/>
        <ride waitingTime="858.00" vehicle="bus_22:0.0" depart="3193.00" arrival="3741.00" arrivalPos="80.49" duration="548.00" routeLength="1660.88" timeLoss="41.92"/>
    </personinfo>
    <personinfo id="410465915.22.1304" depart="1304.00" type="DEFAULT_PEDTYPE">
        <walk depart="1304.00" departPos="138.08" arrival="1415.00" arrivalPos="0.00" duration="111.00" routeLength="138.08" timeLoss="11.58" maxSpeed="1.39"/>
        <ride waitingTime="1913.00" vehicle="bus_22:0.0" depart="3328.00" arrival="3741.00" arrivalPos="80.49" duration="413.00" routeLength="1181.80" timeLoss="29.77"/>
    </personinfo>
    <personinfo id="410462103.22.2235" depart="2235.00" type="DEFAULT_PEDTYPE">
        <walk depart="2235.00" departPos="51.46" arrival="2236.00" arrivalPos="52.46" duration="1.00" routeLength="1.00" timeLoss="0.28" maxSpeed="1.39"/>
        <ride waitingTime="51.00" vehicle="bus_22:0.2" depart="2287.00" arrival="3742.00" arrivalPos="29.18" duration="1455.00" routeLength="4540.06" timeLoss="221.71"/>
    </personinfo>
    <personinfo id="410465915.22.1630" depart="1630.00" type="DEFAULT_PEDTYPE">
        <walk depart="1630.00" departPos="138.08" arrival="1742.00" arrivalPos="0.00" duration="112.00" routeLength="138.08" timeLoss="12.58" maxSpeed="1.39"/>
        <ride waitingTime="1586.00" vehicle="bus_22:0.0" depart="3328.00" arrival="3742.00" arrivalPos="80.49" duration="414.00" routeLength="1181.80" timeLoss="29.77"/>
    </personinfo>
    <personinfo id="410465915.22.2176" depart="2176.00" type="DEFAULT_PEDTYPE">
        <walk depart="2176.00" departPos="138.08" arrival="2288.00" arrivalPos="0.00" duration="112.00" routeLength="138.08" timeLoss="12.58" maxSpeed="1.39"/>
        <ride waitingTime="1040.00" vehicle="bus_22:0.0" depart="3328.00" arrival="3742.00" arrivalPos="80.49" duration="414.00" routeLength="1181.79" timeLoss="29.77"/>
    </personinfo>
    <personinfo id="410465915.22.3009" depart="3009.00" type="DEFAULT_PEDTYPE">
        <walk depart="3009.00" departPos="138.08" arrival="3118.00" arrivalPos="0.00" duration="109.00" routeLength="138.08" timeLoss="9.58" maxSpeed="1.39"/>
        <ride waitingTime="210.00" vehicle="bus_22:0.0" depart="3328.00" arrival="3743.00" arrivalPos="80.49" duration="415.00" routeLength="1181.79" timeLoss="29.77"/>
    </personinfo>
    <personinfo id="410465915.22.3130" depart="3130.00" type="DEFAULT_PEDTYPE">
        <walk depart="3130.00" departPos="138.08" arrival="3241.00" arrivalPos="0.00" duration="111.00" routeLength="138.08" timeLoss="11.58" maxSpeed="1.39"/>