<?xml version="1.0" encoding="UTF-8"?>

<!-- generated on 2024-06-17 09:59:36 by Eclipse SUMO sumo Version 1.14.1
<configuration xmlns:xsi="http://www.w3.org/2001/XMLSchema-instance" xsi:noNamespaceSchemaLocation="http://sumo.dlr.de/xsd/sumoConfiguration.xsd">

    <input>
        <net-file value="wang2020/sumo/ring.net.xml"/>
        <additional-files value="wang2020/sumo/ring.add.xml,wang2020/sumo/persons.add.xml"/>
    </input>

    <output>
        <tripinfo-output value="tripinfo.xml"/>
    </output>

    <processing>
        <no-internal-links value="false"/>
        <lanechange.overtake-right value="true"/>
    </processing>

    <report>
        <no-warnings value="true"/>
    </report>

    <traci_server>
        <remote-port value="50303"/>
    </traci_server>

</configuration>
-->

<tripinfos xmlns:xsi="http://www.w3.org/2001/XMLSchema-instance" xsi:noNamespaceSchemaLocation="http://sumo.dlr.de/xsd/tripinfo_file.xsd">
    <personinfo id="p23" depart="0.00" type="DEFAULT_PEDTYPE">
        <walk depart="0.00" departPos="221.00" arrival="7.00" arrivalPos="226.67" duration="7.00" routeLength="5.67" timeLoss="2.81" maxSpeed="1.35"/>
        <ride waitingTime="17.00" vehicle="bus.5" depart="24.00" arrival="60.00" arrivalPos="231.67" duration="36.00" routeLength="443.33" timeLoss="4.41"/>
        <walk depart="60.00" departPos="231.67" arrival="75.00" arrivalPos="250.00" duration="15.00" routeLength="18.33" timeLoss="1.80" maxSpeed="1.39"/>
    </personinfo>
    <personinfo id="p48" depart="0.00" type="DEFAULT_PEDTYPE">
        <walk depart="0.00" departPos="221.00" arrival="9.00" arrivalPos="226.67" duration="9.00" routeLength="5.67" timeLoss="4.47" maxSpeed="1.25"/>
        <ride waitingTime="15.00" vehicle="bus.4" depart="24.00" arrival="60.00" arrivalPos="231.67" duration="36.00" routeLength="443.34" timeLoss="4.41"/>
        <walk depart="60.00" departPos="231.67" arrival="75.00" arrivalPos="250.00" duration="15.00" routeLength="18.33" timeLoss="1.80" maxSpeed="1.39"/>
    </personinfo>
    <personinfo id="p25" depart="0.00" type="DEFAULT_PEDTYPE">
        <walk depart="0.00" departPos="221.00" arrival="8.00" arrivalPos="226.67" duration="8.00" routeLength="5.67" timeLoss="3.06" maxSpeed="1.15"/>
        <ride waitingTime="16.00" vehicle="bus.5" depart="24.00" arrival="60.00" arrivalPos="231.67" duration="36.00" routeLength="443.33" timeLoss="4.41"/>
        <walk depart="60.00" departPos="231.67" arrival="76.00" arrivalPos="250.00" duration="16.00" routeLength="18.33" timeLoss="2.80" maxSpeed="1.39"/>
    </personinfo>
    <personinfo id="p50" depart="0.00" type="DEFAULT_PEDTYPE">
        <walk depart="0.00" departPos="221.00" arrival="10.00" arrivalPos="226.67" duration="10.00" routeLength="5.67" timeLoss="5.20" maxSpeed="1.18"/>
        <ride waitingTime="14.00" vehicle="bus.4" depart="24.00" arrival="61.00" arrivalPos="231.67" duration="37.00" routeLength="443.34" timeLoss="4.41"/>
        <walk depart="61.00" departPos="231.67" arrival="76.00" arrivalPos="250.00" duration="15.00" routeLength="18.33" timeLoss="1.80" maxSpeed="1.39"/>
    </personinfo>
    <personinfo id="p82" depart="0.00" type="DEFAULT_PEDTYPE">
        <walk depart="0.00" departPos="221.00" arrival="6.00" arrivalPos="226.67" duration="6.00" routeLength="5.67" timeLoss="1.91" maxSpeed="1.39"/>
        <ride waitingTime="18.00" vehicle="bus.2" depart="24.00" arrival="62.00" arrivalPos="231.67" duration="38.00" routeLength="443.33" timeLoss="6.41"/>
        <walk depart="62.00" departPos="231.67" arrival="77.00" arrivalPos="250.00" duration="15.00" routeLength="18.33" timeLoss="1.80" maxSpeed="1.39"/>
    </personinfo>
    <personinfo id="p85" depart="0.00" type="DEFAULT_PEDTYPE">
        <walk depart="0.00" departPos="221.00" arrival="6.00" arrivalPos="226.67" duration="6.00" routeLength="5.67" timeLoss="2.44" maxSpeed="1.59"/>
        <ride waitingTime="18.00" vehicle="bus.2" depart="24.00" arrival="62.00" arrivalPos="231.67" duration="38.00" routeLength="443.33" timeLoss="6.41"/>
        <walk depart="62.00" departPos="231.67" arrival="78.00" arrivalPos="250.00" duration="16.00" routeLength="18.33" timeLoss="2.80" maxSpeed="1.39"/>
    </personinfo>
    <personinfo id="p83" depart="0.00" type="DEFAULT_PEDTYPE">
        <walk depart="0.00" departPos="221.00" arrival="7.00" arrivalPos="226.67" duration="7.00" routeLength="5.67" timeLoss="2.99" maxSpeed="1.41"/>
        <ride waitingTime="17.00" vehicle="bus.2" depart="24.00" arrival="63.00" arrivalPos="231.67" duration="39.00" routeLength="443.33" timeLoss="6.41"/>
        <walk depart="63.00" departPos="231.67" arrival="78.00" arrivalPos="250.00" duration="15.00" routeLength="18.33" timeLoss="1.80" maxSpeed="1.39"/>
    </personinfo>
    <personinfo id="p87" depart="0.00" type="DEFAULT_PEDTYPE">
        <walk depart="0.00" departPos="221.00" arrival="7.00" arrivalPos="226.67" duration="7.00" routeLength="5.67" timeLoss="2.93" maxSpeed="1.39"/>
        <ride waitingTime="17.00" vehicle="bus.2" depart="24.00" arrival="63.00" arrivalPos="231.67" duration="39.00" routeLength="443.33" timeLoss="6.41"/>
        <walk depart="63.00" departPos="231.67" arrival="79.00" arrivalPos="250.00" duration="16.00" routeLength="18.33" timeLoss="2.80" maxSpeed="1.39"/>
    </personinfo>
    <personinfo id="p86" depart="0.00" type="DEFAULT_PEDTYPE">
        <walk depart="0.00" departPos="221.00" arrival="8.00" arrivalPos="226.67" duration="8.00" routeLength="5.67" timeLoss="3.82" maxSpeed="1.36"/>
        <ride waitingTime="16.00" vehicle="bus.2" depart="24.00" arrival="64.00" arrivalPos="231.67" duration="40.00" routeLength="443.33" timeLoss="6.41"/>
        <walk depart="64.00" departPos="231.67" arrival="80.00" arrivalPos="250.00" duration="16.00" routeLength="18.33" timeLoss="2.80" maxSpeed="1.39"/>
    </personinfo>
    <personinfo id="p88" depart="0.00" type="DEFAULT_PEDTYPE">
        <walk depart="0.00" departPos="221.00" arrival="9.00" arrivalPos="226.67" duration="9.00" routeLength="5.67" timeLoss="5.09" maxSpeed="1.45"/>
        <ride waitingTime="15.00" vehicle="bus.2" depart="24.00" arrival="64.00" arrivalPos="231.67" duration="40.00" routeLength="443.33" timeLoss="6.41"/>
        <walk depart="64.00" departPos="231.67" arrival="80.00" arrivalPos="250.00" duration="16.00" routeLength="18.33" timeLoss="2.80" maxSpeed="1.39"/>
    </personinfo>
    <personinfo id="B22" depart="0.00" type="DEFAULT_PEDTYPE">
        <walk depart="0.00" departPos="221.00" arrival="5.00" arrivalPos="226.67" duration="5.00" routeLength="5.67" timeLoss="1.49" maxSpeed="1.62"/>
        <ride waitingTime="21.00" vehicle="busB.5" depart="26.00" arrival="67.00" arrivalPos="231.67" duration="41.00" routeLength="442.17" timeLoss="4.17"/>
        <walk depart="67.00" departPos="231.67" arrival="82.00" arrivalPos="250.00" duration="15.00" routeLength="18.33" timeLoss="1.80" maxSpeed="1.39"/>
    </personinfo>
    <personinfo id="B41" depart="0.00" type="DEFAULT_PEDTYPE">
        <walk depart="0.00" departPos="221.00" arrival="5.00" arrivalPos="226.67" duration="5.00" routeLength="5.67" timeLoss="0.35" maxSpeed="1.22"/>
        <ride waitingTime="21.00" vehicle="busB.4" depart="26.00" arrival="68.00" arrivalPos="231.67" duration="42.00" routeLength="443.34" timeLoss="4.08"/>
        <walk depart="68.00" departPos="231.67" arrival="83.00" arrivalPos="250.00" duration="15.00" routeLength="18.33" timeLoss="1.80" maxSpeed="1.39"/>
    </personinfo>
    <personinfo id="B43" depart="0.00" type="DEFAULT_PEDTYPE">
        <walk depart="0.00" departPos="221.00" arrival="7.00" arrivalPos="226.67" duration="7.00" routeLength="5.67" timeLoss="2.89" maxSpeed="1.38"/>
        <ride waitingTime="19.00" vehicle="busB.4" depart="26.00" arrival="68.00" arrivalPos="231.67" duration="42.00" routeLength="443.34" timeLoss="4.08"/>
        <walk depart="68.00" departPos="231.67" arrival="84.00" arrivalPos="250.00" duration="16.00" routeLength="18.33" timeLoss="2.80" maxSpeed="1.39"/>
    </personinfo>
    <personinfo id="B67" depart="0.00" type="DEFAULT_PEDTYPE">
        <walk depart="0.00" departPos="221.00" arrival="9.00" arrivalPos="226.67" duration="9.00" routeLength="5.67" timeLoss="5.22" maxSpeed="1.50"/>
        <ride waitingTime="18.00" vehicle="busB.3" depart="27.00" arrival="69.00" arrivalPos="231.67" duration="42.00" routeLength="441.48" timeLoss="4.22"/>
        <walk depart="69.00" departPos="231.67" arrival="84.00" arrivalPos="250.00" duration="15.00" routeLength="18.33" timeLoss="1.80" maxSpeed="1.39"/>
    </personinfo>
    <personinfo id="B47" depart="0.00" type="DEFAULT_PEDTYPE">
        <walk depart="0.00" departPos="221.00" arrival="9.00" arrivalPos="226.67" duration="9.00" routeLength="5.67" timeLoss="4.94" maxSpeed="1.39"/>
        <ride waitingTime="17.00" vehicle="busB.4" depart="26.00" arrival="69.00" arrivalPos="231.67" duration="43.00" routeLength="443.34" timeLoss="4.08"/>
        <walk depart="69.00" departPos="231.67" arrival="85.00" arrivalPos="250.00" duration="16.00" routeLength="18.33" timeLoss="2.80" maxSpeed="1.39"/>
    </personinfo>
    <personinfo id="BStop7.0" depart="0.04" type="DEFAULT_PEDTYPE">
        <walk depart="1.00" departPos="200.00" arrival="21.00" arrivalPos="226.67" duration="20.00" routeLength="26.67" timeLoss="2.50" maxSpeed="1.52"/>
        <ride waitingTime="6.00" vehicle="busB.3" depart="27.00" arrival="69.00" arrivalPos="231.67" duration="42.00" routeLength="441.48" timeLoss="4.22"/>
        <walk depart="69.00" departPos="231.67" arrival="85.00" arrivalPos="250.00" duration="16.00" routeLength="18.33" timeLoss="2.80" maxSpeed="1.39"/>
    </personinfo>
    <personinfo id="p12" depart="0.00" type="DEFAULT_PEDTYPE">
        <walk depart="0.00" departPos="221.00" arrival="5.00" arrivalPos="226.67" duration="5.00" routeLength="5.67" timeLoss="1.02" maxSpeed="1.43"/>
        <ride waitingTime="45.00" vehicle="bus.0" depart="50.00" arrival="81.00" arrivalPos="231.67" duration="31.00" routeLength="443.34" timeLoss="4.41"/>
        <walk depart="81.00" departPos="231.67" arrival="96.00" arrivalPos="250.00" duration="15.00" routeLength="18.33" timeLoss="1.80" maxSpeed="1.39"/>
    </personinfo>
    <personinfo id="p15" depart="0.00" type="DEFAULT_PEDTYPE">
        <walk depart="0.00" departPos="221.00" arrival="8.00" arrivalPos="226.67" duration="8.00" routeLength="5.67" timeLoss="3.88" maxSpeed="1.38"/>
        <ride waitingTime="42.00" vehicle="bus.0" depart="50.00" arrival="81.00" arrivalPos="231.67" duration="31.00" routeLength="443.34" timeLoss="4.41"/>
        <walk depart="81.00" departPos="231.67" arrival="97.00" arrivalPos="250.00" duration="16.00" routeLength="18.33" timeLoss="2.80" maxSpeed="1.39"/>
    </personinfo>
    <personinfo id="p19" depart="0.00" type="DEFAULT_PEDTYPE">
        <walk depart="0.00" departPos="221.00" arrival="10.00" arrivalPos="226.67" duration="10.00" routeLength="5.67" timeLoss="5.64" maxSpeed="1.30"/>
        <ride waitingTime="40.00" vehicle="bus.0" depart="50.00" arrival="82.00" arrivalPos="231.67" duration="32.00" routeLength="443.34" timeLoss="4.41"/>
        <walk depart="82.00" departPos="231.67" arrival="97.00" arrivalPos="250.00" duration="15.00" routeLength="18.33" timeLoss="1.80" maxSpeed="1.39"/>
    </personinfo>
    <personinfo id="B85" depart="0.00" type="DEFAULT_PEDTYPE">
        <walk depart="0.00" departPos="221.00" arrival="8.00" arrivalPos="226.67" duration="8.00" routeLength="5.67" timeLoss="4.18" maxSpeed="1.48"/>
        <ride waitingTime="18.00" vehicle="busB.2" depart="26.00" arrival="85.00" arrivalPos="231.67" duration="59.00" routeLength="443.33" timeLoss="25.94"/>
        <walk depart="85.00" departPos="231.67" arrival="100.00" arrivalPos="250.00" duration="15.00" routeLength="18.33" timeLoss="1.80" maxSpeed="1.39"/>
    </personinfo>
    <personinfo id="B89" depart="0.00" type="DEFAULT_PEDTYPE">
        <walk depart="0.00" departPos="221.00" arrival="10.00" arrivalPos="226.67" duration="10.00" routeLength="5.67" timeLoss="5.76" maxSpeed="1.34"/>
        <ride waitingTime="16.00" vehicle="busB.2" depart="26.00" arrival="86.00" arrivalPos="231.67" duration="60.00" routeLength="443.33" timeLoss="25.94"/>
        <walk depart="86.00" departPos="231.67" arrival="101.00" arrivalPos="250.00" duration="15.00" routeLength="18.33" timeLoss="1.80" maxSpeed="1.39"/>
    </personinfo>
    <personinfo id="p29" depart="0.00" type="DEFAULT_PEDTYPE">
        <walk depart="0.00" departPos="221.00" arrival="9.00" arrivalPos="226.67" duration="9.00" routeLength="5.67" timeLoss="5.39" maxSpeed="1.57"/>
        <ride waitingTime="15.00" vehicle="bus.5" depart="24.00" arrival="93.00" arrivalPos="231.67" duration="69.00" routeLength="886.66" timeLoss="8.81"/>
        <walk depart="93.00" departPos="231.67" arrival="108.00" arrivalPos="250.00" duration="15.00" routeLength="18.33" timeLoss="1.80" maxSpeed="1.39"/>
    </personinfo>
    <personinfo id="B13" depart="0.00" type="DEFAULT_PEDTYPE">
        <walk depart="0.00" departPos="221.00" arrival="6.00" arrivalPos="226.67" duration="6.00" routeLength="5.67" timeLoss="1.75" maxSpeed="1.33"/>
        <ride waitingTime="51.00" vehicle="busB.0" depart="57.00" arrival="93.00" arrivalPos="231.67" duration="36.00" routeLength="443.34" timeLoss="4.08"/>
        <walk depart="93.00" departPos="231.67" arrival="108.00" arrivalPos="250.00" duration="15.00" routeLength="18.33" timeLoss="1.80" maxSpeed="1.39"/>
    </personinfo>
    <personinfo id="p32" depart="0.00" type="DEFAULT_PEDTYPE">
        <walk depart="0.00" departPos="221.00" arrival="5.00" arrivalPos="226.67" duration="5.00" routeLength="5.67" timeLoss="1.46" maxSpeed="1.60"/>
        <ride waitingTime="57.00" vehicle="bus.5" depart="62.00" arrival="94.00" arrivalPos="231.67" duration="32.00" routeLength="443.33" timeLoss="4.41"/>
        <walk depart="94.00" departPos="231.67" arrival="109.00" arrivalPos="250.00" duration="15.00" routeLength="18.33" timeLoss="1.80" maxSpeed="1.39"/>
    </personinfo>
    <personinfo id="B15" depart="0.00" type="DEFAULT_PEDTYPE">
        <walk depart="0.00" departPos="221.00" arrival="7.00" arrivalPos="226.67" duration="7.00" routeLength="5.67" timeLoss="3.67" maxSpeed="1.70"/>
        <ride waitingTime="50.00" vehicle="busB.0" depart="57.00" arrival="93.00" arrivalPos="231.67" duration="36.00" routeLength="443.34" timeLoss="4.08"/>
        <walk depart="93.00" departPos="231.67" arrival="109.00" arrivalPos="250.00" duration="16.00" routeLength="18.33" timeLoss="2.80" maxSpeed="1.39"/>
    </personinfo>
    <personinfo id="B17" depart="0.00" type="DEFAULT_PEDTYPE">
        <walk depart="0.00" departPos="221.00" arrival="8.00" arrivalPos="226.67" duration="8.00" routeLength="5.67" timeLoss="4.35" maxSpeed="1.55"/>
        <ride waitingTime="49.00" vehicle="busB.0" depart="57.00" arrival="94.00" arrivalPos="231.67" duration="37.00" routeLength="443.34" timeLoss="4.08"/>
        <walk depart="94.00" departPos="231.67" arrival="109.00" arrivalPos="250.00" duration="15.00" routeLength="18.33" timeLoss="1.80" maxSpeed="1.39"/>
    </personinfo>
    <personinfo id="p38" depart="0.00" type="DEFAULT_PEDTYPE">
        <walk depart="0.00" departPos="221.00" arrival="6.00" arrivalPos="226.67" duration="6.00" routeLength="5.67" timeLoss="2.54" maxSpeed="1.64"/>
        <ride waitingTime="56.00" vehicle="bus.5" depart="62.00" arrival="94.00" arrivalPos="231.67" duration="32.00" routeLength="443.33" timeLoss="4.41"/>
        <walk depart="94.00" departPos="231.67" arrival="110.00" arrivalPos="250.00" duration="16.00" routeLength="18.33" timeLoss="2.80" maxSpeed="1.39"/>
    </personinfo>
    <personinfo id="p39" depart="0.00" type="DEFAULT_PEDTYPE">
        <walk depart="0.00" departPos="221.00" arrival="8.00" arrivalPos="226.67" duration="8.00" routeLength="5.67" timeLoss="4.30" maxSpeed="1.53"/>
        <ride waitingTime="54.00" vehicle="bus.5" depart="62.00" arrival="95.00" arrivalPos="231.67" duration="33.00" routeLength="443.33" timeLoss="4.41"/>
        <walk depart="95.00" departPos="231.67" arrival="110.00" arrivalPos="250.00" duration="15.00" routeLength="18.33" timeLoss="1.80" maxSpeed="1.39"/>
    </personinfo>
    <personinfo id="B20" depart="0.00" type="DEFAULT_PEDTYPE">
        <walk depart="0.00" departPos="221.00" arrival="9.00" arrivalPos="226.67" duration="9.00" routeLength="5.67" timeLoss="4.72" maxSpeed="1.32"/>
        <ride waitingTime="48.00" vehicle="busB.0" depart="57.00" arrival="94.00" arrivalPos="231.67" duration="37.00" routeLength="443.34" timeLoss="4.08"/>
        <walk depart="94.00" departPos="231.67" arrival="110.00" arrivalPos="250.00" duration="16.00" routeLength="18.33" timeLoss="2.80" maxSpeed="1.39"/>
    </personinfo>
    <personinfo id="p40" depart="0.00" type="DEFAULT_PEDTYPE">
        <walk depart="0.00" departPos="221.00" arrival="9.00" arrivalPos="226.67" duration="9.00" routeLength="5.67" timeLoss="4.47" maxSpeed="1.25"/>
        <ride waitingTime="53.00" vehicle="bus.5" depart="62.00" arrival="95.00" arrivalPos="231.67" duration="33.00" routeLength="443.33" timeLoss="4.41"/>
        <walk depart="95.00" departPos="231.67" arrival="111.00" arrivalPos="250.00" duration="16.00" routeLength="18.33" timeLoss="2.80" maxSpeed="1.39"/>
    </personinfo>
    <personinfo id="B19" depart="0.00" type="DEFAULT_PEDTYPE">
        <walk depart="0.00" departPos="221.00" arrival="10.00" arrivalPos="226.67" duration="10.00" routeLength="5.67" timeLoss="5.93" maxSpeed="1.39"/>
        <ride waitingTime="47.00" vehicle="busB.0" depart="57.00" arrival="95.00" arrivalPos="231.67" duration="38.00" routeLength="443.34" timeLoss="4.08"/>
        <walk depart="95.00" departPos="231.67" arrival="111.00" arrivalPos="250.00" duration="16.00" routeLength="18.33" timeLoss="2.80" maxSpeed="1.39"/>
    </personinfo>
    <personinfo id="B28" depart="0.00" type="DEFAULT_PEDTYPE">
        <walk depart="0.00" departPos="221.00" arrival="9.00" arrivalPos="226.67" duration="9.00" routeLength="5.67" timeLoss="4.93" maxSpeed="1.39"/>
        <ride waitingTime="17.00" vehicle="busB.5" depart="26.00" arrival="105.00" arrivalPos="231.67" duration="79.00" routeLength="883.65" timeLoss="8.38"/>
        <walk depart="105.00" departPos="231.67" arrival="120.00" arrivalPos="250.00" duration="15.00" routeLength="18.33" timeLoss="1.80" maxSpeed="1.39"/>
    </personinfo>
    <personinfo id="p42" depart="0.00" type="DEFAULT_PEDTYPE">
        <walk depart="0.00" departPos="221.00" arrival="6.00" arrivalPos="226.67" duration="6.00" routeLength="5.67" timeLoss="1.74" maxSpeed="1.33"/>
        <ride waitingTime="18.00" vehicle="bus.4" depart="24.00" arrival="106.00" arrivalPos="231.67" duration="82.00" routeLength="886.67" timeLoss="8.81"/>
        <walk depart="106.00" departPos="231.67" arrival="121.00" arrivalPos="250.00" duration="15.00" routeLength="18.33" timeLoss="1.80" maxSpeed="1.39"/>
    </personinfo>
    <personinfo id="p65" depart="0.00" type="DEFAULT_PEDTYPE">
        <walk depart="0.00" departPos="221.00" arrival="7.00" arrivalPos="226.67" duration="7.00" routeLength="5.67" timeLoss="2.65" maxSpeed="1.30"/>
        <ride waitingTime="18.00" vehicle="bus.3" depart="25.00" arrival="106.00" arrivalPos="231.67" duration="81.00" routeLength="886.67" timeLoss="8.81"/>
        <walk depart="106.00" departPos="231.67" arrival="121.00" arrivalPos="250.00" duration="15.00" routeLength="18.33" timeLoss="1.80" maxSpeed="1.39"/>
    </personinfo>
    <personinfo id="B34" depart="0.00" type="DEFAULT_PEDTYPE">
        <walk depart="0.00" departPos="221.00" arrival="6.00" arrivalPos="226.67" duration="6.00" routeLength="5.67" timeLoss="1.60" maxSpeed="1.29"/>
        <ride waitingTime="63.00" vehicle="busB.5" depart="69.00" arrival="105.00" arrivalPos="231.67" duration="36.00" routeLength="441.48" timeLoss="4.22"/>
        <walk depart="105.00" departPos="231.67" arrival="121.00" arrivalPos="250.00" duration="16.00" routeLength="18.33" timeLoss="2.80" maxSpeed="1.39"/>
    </personinfo>
    <personinfo id="p52" depart="0.00" type="DEFAULT_PEDTYPE">
        <walk depart="0.00" departPos="221.00" arrival="8.00" arrivalPos="226.67" duration="8.00" routeLength="5.67" timeLoss="4.51" maxSpeed="1.62"/>
        <ride waitingTime="64.00" vehicle="bus.4" depart="72.00" arrival="107.00" arrivalPos="231.67" duration="35.00" routeLength="443.33" timeLoss="4.41"/>
        <walk depart="107.00" departPos="231.67" arrival="122.00" arrivalPos="250.00" duration="15.00" routeLength="18.33" timeLoss="1.80" maxSpeed="1.39"/>
    </personinfo>
    <personinfo id="p78" depart="0.00" type="DEFAULT_PEDTYPE">
        <walk depart="0.00" departPos="221.00" arrival="8.00" arrivalPos="226.67" duration="8.00" routeLength="5.67" timeLoss="3.84" maxSpeed="1.36"/>
        <ride waitingTime="67.00" vehicle="bus.3" depart="75.00" arrival="106.00" arrivalPos="231.67" duration="31.00" routeLength="443.34" timeLoss="4.41"/>
        <walk depart="106.00" departPos="231.67" arrival="122.00" arrivalPos="250.00" duration="16.00" routeLength="18.33" timeLoss="2.80" maxSpeed="1.39"/>
    </personinfo>
    <personinfo id="p55" depart="0.00" type="DEFAULT_PEDTYPE">
        <walk depart="0.00" departPos="221.00" arrival="7.00" arrivalPos="226.67" duration="7.00" routeLength="5.67" timeLoss="2.93" maxSpeed="1.39"/>
        <ride waitingTime="65.00" vehicle="bus.4" depart="72.00" arrival="107.00" arrivalPos="231.67" duration="35.00" routeLength="443.33" timeLoss="4.41"/>
        <walk depart="107.00" departPos="231.67" arrival="123.00" arrivalPos="250.00" duration="16.00" routeLength="18.33" timeLoss="2.80" maxSpeed="1.39"/>
    </personinfo>
    <personinfo id="p80" depart="0.00" type="DEFAULT_PEDTYPE">
        <walk depart="0.00" departPos="221.00" arrival="9.00" arrivalPos="226.67" duration="9.00" routeLength="5.67" timeLoss="5.24" maxSpeed="1.51"/>
        <ride waitingTime="66.00" vehicle="bus.3" depart="75.00" arrival="107.00" arrivalPos="231.67" duration="32.00" routeLength="443.34" timeLoss="4.41"/>
        <walk depart="107.00" departPos="231.67" arrival="123.00" arrivalPos="250.00" duration="16.00" routeLength="18.33" timeLoss="2.80" maxSpeed="1.39"/>
    </personinfo>
    <personinfo id="p10" depart="0.00" type="DEFAULT_PEDTYPE">
        <walk depart="0.00" departPos="221.00" arrival="6.00" arrivalPos="226.67" duration="6.00" routeLength="5.67" timeLoss="1.24" maxSpeed="1.19"/>
        <ride waitingTime="72.00" vehicle="bus.1" depart="78.00" arrival="109.00" arrivalPos="231.67" duration="31.00" routeLength="443.33" timeLoss="4.41"/>
        <walk depart="109.00" departPos="231.67" arrival="124.00" arrivalPos="250.00" duration="15.00" routeLength="18.33" timeLoss="1.80" maxSpeed="1.39"/>
    </personinfo>
    <personinfo id="p57" depart="0.00" type="DEFAULT_PEDTYPE">
        <walk depart="0.00" departPos="221.00" arrival="10.00" arrivalPos="226.67" duration="10.00" routeLength="5.67" timeLoss="5.46" maxSpeed="1.25"/>
        <ride waitingTime="62.00" vehicle="bus.4" depart="72.00" arrival="108.00" arrivalPos="231.67" duration="36.00" routeLength="443.33" timeLoss="4.41"/>
        <walk depart="108.00" departPos="231.67" arrival="124.00" arrivalPos="250.00" duration="16.00" routeLength="18.33" timeLoss="2.80" maxSpeed="1.39"/>
    </personinfo>
    <personinfo id="pStop6.1" depart="14.47" type="DEFAULT_PEDTYPE">
        <walk depart="15.00" departPos="200.00" arrival="39.00" arrivalPos="226.67" duration="24.00" routeLength="26.67" timeLoss="3.06" maxSpeed="1.27"/>
        <ride waitingTime="33.00" vehicle="bus.4" depart="72.00" arrival="108.00" arrivalPos="231.67" duration="36.00" routeLength="443.33" timeLoss="4.41"/>
        <walk depart="108.00" departPos="231.67" arrival="124.00" arrivalPos="250.00" duration="16.00" routeLength="18.33" timeLoss="2.80" maxSpeed="1.39"/>
    </personinfo>
    <personinfo id="B44" depart="0.00" type="DEFAULT_PEDTYPE">
        <walk depart="0.00" departPos="221.00" arrival="6.00" arrivalPos="226.67" duration="6.00" routeLength="5.67" timeLoss="2.38" maxSpeed="1.57"/>
        <ride waitingTime="20.00" vehicle="busB.4" depart="26.00" arrival="109.00" arrivalPos="231.67" duration="83.00" routeLength="885.51" timeLoss="8.25"/>
        <walk depart="109.00" departPos="231.67" arrival="124.00" arrivalPos="250.00" duration="15.00" routeLength="18.33" timeLoss="1.80" maxSpeed="1.39"/>
    </personinfo>
    <personinfo id="p3" depart="0.00" type="DEFAULT_PEDTYPE">
        <walk depart="0.00" departPos="221.00" arrival="7.00" arrivalPos="226.67" duration="7.00" routeLength="5.67" timeLoss="2.96" maxSpeed="1.40"/>
        <ride waitingTime="71.00" vehicle="bus.1" depart="78.00" arrival="109.00" arrivalPos="231.67" duration="31.00" routeLength="443.33" timeLoss="4.41"/>
        <walk depart="109.00" departPos="231.67" arrival="125.00" arrivalPos="250.00" duration="16.00" routeLength="18.33" timeLoss="2.80" maxSpeed="1.39"/>
    </personinfo>
    <personinfo id="B45" depart="0.00" type="DEFAULT_PEDTYPE">
        <walk depart="0.00" departPos="221.00" arrival="8.00" arrivalPos="226.67" duration="8.00" routeLength="5.67" timeLoss="4.12" maxSpeed="1.46"/>
        <ride waitingTime="18.00" vehicle="busB.4" depart="26.00" arrival="109.00" arrivalPos="231.67" duration="83.00" routeLength="885.51" timeLoss="8.25"/>
        <walk depart="109.00" departPos="231.67" arrival="125.00" arrivalPos="250.00" duration="16.00" routeLength="18.33" timeLoss="2.80" maxSpeed="1.39"/>
    </personinfo>
    <personinfo id="B50" depart="0.00" type="DEFAULT_PEDTYPE">
        <walk depart="0.00" departPos="221.00" arrival="9.00" arrivalPos="226.67" duration="9.00" routeLength="5.67" timeLoss="4.66" maxSpeed="1.31"/>
        <ride waitingTime="17.00" vehicle="busB.4" depart="26.00" arrival="110.00" arrivalPos="231.67" duration="84.00" routeLength="885.51" timeLoss="8.25"/>
        <walk depart="110.00" departPos="231.67" arrival="125.00" arrivalPos="250.00" duration="15.00" routeLength="18.33" timeLoss="1.80" maxSpeed="1.39"/>
    </personinfo>
    <personinfo id="p6" depart="0.00" type="DEFAULT_PEDTYPE">
        <walk depart="0.00" departPos="221.00" arrival="10.00" arrivalPos="226.67" duration="10.00" routeLength="5.67" timeLoss="5.09" maxSpeed="1.15"/>
        <ride waitingTime="68.00" vehicle="bus.1" depart="78.00" arrival="110.00" arrivalPos="231.67" duration="32.00" routeLength="443.33" timeLoss="4.41"/>
        <walk depart="110.00" departPos="231.67" arrival="126.00" arrivalPos="250.00" duration="16.00" routeLength="18.33" timeLoss="2.80" maxSpeed="1.39"/>
    </personinfo>
    <personinfo id="p81" depart="0.00" type="DEFAULT_PEDTYPE">
        <walk depart="0.00" departPos="221.00" arrival="5.00" arrivalPos="226.67" duration="5.00" routeLength="5.67" timeLoss="1.05" maxSpeed="1.44"/>
        <ride waitingTime="19.00" vehicle="bus.2" depart="24.00" arrival="111.00" arrivalPos="231.67" duration="87.00" routeLength="886.66" timeLoss="10.81"/>
        <walk depart="111.00" departPos="231.67" arrival="126.00" arrivalPos="250.00" duration="15.00" routeLength="18.33" timeLoss="1.80" maxSpeed="1.39"/>
    </personinfo>
    <personinfo id="B56" depart="0.00" type="DEFAULT_PEDTYPE">
        <walk depart="0.00" departPos="221.00" arrival="9.00" arrivalPos="226.67" duration="9.00" routeLength="5.67" timeLoss="4.56" maxSpeed="1.28"/>
        <ride waitingTime="61.00" vehicle="busB.4" depart="70.00" arrival="110.00" arrivalPos="231.67" duration="40.00" routeLength="442.17" timeLoss="4.17"/>
        <walk depart="110.00" departPos="231.67" arrival="126.00" arrivalPos="250.00" duration="16.00" routeLength="18.33" timeLoss="2.80" maxSpeed="1.39"/>
    </personinfo>
    <personinfo id="B61" depart="0.00" type="DEFAULT_PEDTYPE">
        <walk depart="0.00" departPos="221.00" arrival="5.00" arrivalPos="226.67" duration="5.00" routeLength="5.67" timeLoss="1.29" maxSpeed="1.53"/>
        <ride waitingTime="22.00" vehicle="busB.3" depart="27.00" arrival="118.00" arrivalPos="231.67" duration="91.00" routeLength="884.82" timeLoss="8.30"/>
        <walk depart="118.00" departPos="231.67" arrival="133.00" arrivalPos="250.00" duration="15.00" routeLength="18.33" timeLoss="1.80" maxSpeed="1.39"/>
    </personinfo>
    <personinfo id="B63" depart="0.00" type="DEFAULT_PEDTYPE">
        <walk depart="0.00" departPos="221.00" arrival="7.00" arrivalPos="226.67" duration="7.00" routeLength="5.67" timeLoss="3.04" maxSpeed="1.43"/>
        <ride waitingTime="20.00" vehicle="busB.3" depart="27.00" arrival="119.00" arrivalPos="231.67" duration="92.00" routeLength="884.82" timeLoss="8.30"/>
        <walk depart="119.00" departPos="231.67" arrival="134.00" arrivalPos="250.00" duration="15.00" routeLength="18.33" timeLoss="1.80" maxSpeed="1.39"/>
    </personinfo>
    <personinfo id="B69" depart="0.00" type="DEFAULT_PEDTYPE">
        <walk depart="0.00" departPos="221.00" arrival="9.00" arrivalPos="226.67" duration="9.00" routeLength="5.67" timeLoss="4.80" maxSpeed="1.35"/>
        <ride waitingTime="18.00" vehicle="busB.3" depart="27.00" arrival="119.00" arrivalPos="231.67" duration="92.00" routeLength="884.82" timeLoss="8.30"/>
        <walk depart="119.00" departPos="231.67" arrival="135.00" arrivalPos="250.00" duration="16.00" routeLength="18.33" timeLoss="2.80" maxSpeed="1.39"/>
    </personinfo>
    <personinfo id="B68" depart="0.00" type="DEFAULT_PEDTYPE">
        <walk depart="0.00" departPos="221.00" arrival="9.00" arrivalPos="226.67" duration="9.00" routeLength="5.67" timeLoss="4.42" maxSpeed="1.24"/>
        <ride waitingTime="18.00" vehicle="busB.3" depart="27.00" arrival="120.00" arrivalPos="231.67" duration="93.00" routeLength="884.82" timeLoss="8.30"/>
        <walk depart="120.00" departPos="231.67" arrival="136.00" arrivalPos="250.00" duration="16.00" routeLength="18.33" timeLoss="2.80" maxSpeed="1.39"/>
    </personinfo>
    <personinfo id="B75" depart="0.00" type="DEFAULT_PEDTYPE">