<?xml version="1.0" encoding="UTF-8"?>

<!-- generated on 2024-05-04 00:50:09 by Eclipse SUMO sumo Version 1.14.1
<configuration xmlns:xsi="http://www.w3.org/2001/XMLSchema-instance" xsi:noNamespaceSchemaLocation="http://sumo.dlr.de/xsd/sumoConfiguration.xsd">

    <input>
        <net-file value="singapore/sumo/singapore.net.xml"/>
        <route-files value="singapore/sumo/busFlows.rou.xml"/>
        <additional-files value="singapore/sumo/busstops.xml"/>
    </input>

    <output>
        <tripinfo-output value="tripinfo.xml"/>
    </output>

    <processing>
        <no-internal-links value="true"/>
    </processing>

    <traci_server>
        <remote-port value="52741"/>
    </traci_server>

</configuration>
-->

<tripinfos xmlns:xsi="http://www.w3.org/2001/XMLSchema-instance" xsi:noNamespaceSchemaLocation="http://sumo.dlr.de/xsd/tripinfo_file.xsd">
    <personinfo id="1531005322.43.396" depart="396.00" type="DEFAULT_PEDTYPE">
        <walk depart="396.00" departPos="12.13" arrival="397.00" arrivalPos="13.13" duration="1.00" routeLength="1.00" timeLoss="0.28" maxSpeed="1.39"/>
        <ride waitingTime="992.00" vehicle="bus_22:0.0" depart="1389.00" arrival="1476.00" arrivalPos="176.36" duration="87.00" routeLength="315.54" timeLoss="10.04"/>
    </personinfo>
    <personinfo id="410459897.22.580" depart="580.00" type="DEFAULT_PEDTYPE">
        <walk depart="580.00" departPos="23.17" arrival="581.00" arrivalPos="24.17" duration="1.00" routeLength="1.00" timeLoss="0.28" maxSpeed="1.39"/>
        <ride waitingTime="8.00" vehicle="bus_22:0.1" depart="589.00" arrival="1548.00" arrivalPos="95.99" duration="959.00" routeLength="3340.37" timeLoss="144.29"/>
    </personinfo>
    <personinfo id="410462101.22.646" depart="646.00" type="DEFAULT_PEDTYPE">
        <walk depart="646.00" departPos="11.46" arrival="647.00" arrivalPos="12.46" duration="1.00" routeLength="1.00" timeLoss="0.28" maxSpeed="1.39"/>
        <ride waitingTime="321.00" vehicle="bus_22:0.0" depart="968.00" arrival="1584.00" arrivalPos="13.84" duration="616.00" routeLength="1642.70" timeLoss="172.37"/>
    </personinfo>
    <personinfo id="410460005.22.88" depart="88.00" type="DEFAULT_PEDTYPE">
        <walk depart="88.00" departPos="286.81" arrival="318.00" arrivalPos="0.00" duration="230.00" routeLength="286.81" timeLoss="23.50" maxSpeed="1.39"/>
        <ride waitingTime="374.00" vehicle="bus_22:0.2" depart="692.00" arrival="1655.00" arrivalPos="22.43" duration="963.00" routeLength="3653.96" timeLoss="71.80"/>
    </personinfo>
    <personinfo id="410462293.43.974" depart="974.00" type="DEFAULT_PEDTYPE">
        <walk depart="974.00" departPos="10.48" arrival="975.00" arrivalPos="11.48" duration="1.00" routeLength="1.00" timeLoss="0.28" maxSpeed="1.39"/>
        <ride waitingTime="605.00" vehicle="bus_43:0.0" depart="1580.00" arrival="1696.00" arrivalPos="29.61" duration="116.00" routeLength="425.21" timeLoss="12.29"/>
    </personinfo>
    <personinfo id="410474760.43.1225" depart="1225.00" type="DEFAULT_PEDTYPE">
        <walk depart="1225.00" departPos="38.27" arrival="1226.00" arrivalPos="39.27" duration="1.00" routeLength="1.00" timeLoss="0.28" maxSpeed="1.39"/>
        <ride waitingTime="445.00" vehicle="bus_43:0.3" depart="1671.00" arrival="1972.00" arrivalPos="7.69" duration="301.00" routeLength="1117.73" timeLoss="27.41"/>
    </personinfo>
    <personinfo id="410475114.22.1499" depart="1499.00" type="DEFAULT_PEDTYPE">
        <walk depart="1499.00" departPos="84.99" arrival="1500.00" arrivalPos="85.99" duration="1.00" routeLength="1.00" timeLoss="0.28" maxSpeed="1.39"/>
        <ride waitingTime="49.00" vehicle="bus_22:0.1" depart="1549.00" arrival="1978.00" arrivalPos="31.76" duration="429.00" routeLength="1441.17" timeLoss="76.52"/>
    </personinfo>
    <personinfo id="410483103.22.1691" depart="1691.00" type="DEFAULT_PEDTYPE">
        <walk depart="1691.00" departPos="165.36" arrival="1692.00" arrivalPos="166.36" duration="1.00" routeLength="1.00" timeLoss="0.28" maxSpeed="1.39"/>
        <ride waitingTime="71.00" vehicle="bus_22:0.1" depart="1763.00" arrival="1978.00" arrivalPos="31.76" duration="215.00" routeLength="805.40" timeLoss="18.58"/>
    </personinfo>
    <personinfo id="1849631273.43.1342" depart="1342.00" type="DEFAULT_PEDTYPE">
        <walk depart="1342.00" departPos="413.46" arrival="1673.00" arrivalPos="0.00" duration="331.00" routeLength="413.46" timeLoss="33.31" maxSpeed="1.39"/>
        <ride waitingTime="104.00" vehicle="bus_43:0.2" depart="1777.00" arrival="2258.00" arrivalPos="10.16" duration="481.00" routeLength="1445.03" timeLoss="36.57"/>
    </personinfo>
    <personinfo id="410482520.22.1008" depart="1008.00" type="DEFAULT_PEDTYPE">
        <walk depart="1008.00" departPos="2.85" arrival="1009.00" arrivalPos="3.85" duration="1.00" routeLength="1.00" timeLoss="0.28" maxSpeed="1.39"/>
        <ride waitingTime="576.00" vehicle="bus_22:0.0" depart="1585.00" arrival="2274.00" arrivalPos="10.10" duration="689.00" routeLength="2585.34" timeLoss="57.46"/>
    </personinfo>
    <personinfo id="410460005.22.241" depart="241.00" type="DEFAULT_PEDTYPE">
        <walk depart="241.00" departPos="286.81" arrival="471.00" arrivalPos="0.00" duration="230.00" routeLength="286.81" timeLoss="23.50" maxSpeed="1.39"/>
        <ride waitingTime="221.00" vehicle="bus_22:0.2" depart="692.00" arrival="2347.00" arrivalPos="24.59" duration="1655.00" routeLength="4736.18" timeLoss="316.86"/>
    </personinfo>
    <personinfo id="410482572.43.154" depart="154.00" type="DEFAULT_PEDTYPE">
        <walk depart="154.00" departPos="20.76" arrival="155.00" arrivalPos="21.76" duration="1.00" routeLength="1.00" timeLoss="0.28" maxSpeed="1.39"/>
        <ride waitingTime="1825.00" vehicle="bus_22:0.1" depart="1980.00" arrival="2389.00" arrivalPos="102.54" duration="409.00" routeLength="1547.83" timeLoss="31.50"/>
    </personinfo>
    <personinfo id="410482564.22.1352" depart="1352.00" type="DEFAULT_PEDTYPE">
        <walk depart="1352.00" departPos="87.68" arrival="1353.00" arrivalPos="88.68" duration="1.00" routeLength="1.00" timeLoss="0.28" maxSpeed="1.39"/>
        <ride waitingTime="723.00" vehicle="bus_22:0.0" depart="2076.00" arrival="2404.00" arrivalPos="29.16" duration="328.00" routeLength="1093.84" timeLoss="26.24"/>
    </personinfo>
    <personinfo id="410459904.22.1085" depart="1085.00" type="DEFAULT_PEDTYPE">
        <walk depart="1085.00" departPos="19.22" arrival="1086.00" arrivalPos="20.22" duration="1.00" routeLength="1.00" timeLoss="0.28" maxSpeed="1.39"/>
        <ride waitingTime="126.00" vehicle="bus_22:0.3" depart="1212.00" arrival="2448.00" arrivalPos="176.35" duration="1236.00" routeLength="3884.59" timeLoss="196.55"/>
    </personinfo>
    <personinfo id="410459651.22.1796" depart="1796.00" type="DEFAULT_PEDTYPE">
        <walk depart="1796.00" departPos="15.18" arrival="1797.00" arrivalPos="16.18" duration="1.00" routeLength="1.00" timeLoss="0.28" maxSpeed="1.39"/>
        <ride waitingTime="23.00" vehicle="bus_22:0.4" depart="1820.00" arrival="2523.00" arrivalPos="95.98" duration="703.00" routeLength="2092.46" timeLoss="100.69"/>
    </personinfo>
    <personinfo id="410462101.22.2030" depart="2030.00" type="DEFAULT_PEDTYPE">
        <walk depart="2030.00" departPos="11.46" arrival="2031.00" arrivalPos="12.46" duration="1.00" routeLength="1.00" timeLoss="0.28" maxSpeed="1.39"/>
        <ride waitingTime="234.00" vehicle="bus_22:0.4" depart="2265.00" arrival="2523.00" arrivalPos="95.98" duration="258.00" routeLength="761.90" timeLoss="71.20"/>
    </personinfo>
    <personinfo id="410462293.43.687" depart="687.00" type="DEFAULT_PEDTYPE">
        <walk depart="687.00" departPos="10.48" arrival="688.00" arrivalPos="11.48" duration="1.00" routeLength="1.00" timeLoss="0.28" maxSpeed="1.39"/>
        <ride waitingTime="892.00" vehicle="bus_43:0.0" depart="1580.00" arrival="2556.00" arrivalPos="11.12" duration="976.00" routeLength="2594.10" timeLoss="71.36"/>
    </personinfo>
    <personinfo id="410462103.22.1901" depart="1901.00" type="DEFAULT_PEDTYPE">
        <walk depart="1901.00" departPos="51.46" arrival="1902.00" arrivalPos="52.46" duration="1.00" routeLength="1.00" timeLoss="0.28" maxSpeed="1.39"/>
        <ride waitingTime="75.00" vehicle="bus_22:0.3" depart="1977.00" arrival="2568.00" arrivalPos="13.84" duration="591.00" routeLength="1602.70" timeLoss="173.11"/>
    </personinfo>
    <personinfo id="410462293.43.1785" depart="1785.00" type="DEFAULT_PEDTYPE">
        <walk depart="1785.00" departPos="10.48" arrival="1786.00" arrivalPos="11.48" duration="1.00" routeLength="1.00" timeLoss="0.28" maxSpeed="1.39"/>
        <ride waitingTime="178.00" vehicle="bus_43:0.2" depart="1964.00" arrival="2594.00" arrivalPos="60.88" duration="630.00" routeLength="1936.06" timeLoss="48.82"/>
    </personinfo>
    <personinfo id="410486991.43.448" depart="448.00" type="DEFAULT_PEDTYPE">
        <walk depart="448.00" departPos="194.33" arrival="449.00" arrivalPos="195.33" duration="1.00" routeLength="1.00" timeLoss="0.28" maxSpeed="1.39"/>
        <ride waitingTime="1707.00" vehicle="bus_43:0.0" depart="2156.00" arrival="2765.00" arrivalPos="40.58" duration="609.00" routeLength="1549.63" timeLoss="45.10"/>
    </personinfo>
    <personinfo id="410459897.22.2685" depart="2685.00" type="DEFAULT_PEDTYPE">
        <walk depart="2685.00" departPos="23.17" arrival="2686.00" arrivalPos="24.17" duration="1.00" routeLength="1.00" timeLoss="0.28" maxSpeed="1.39"/>
        <ride waitingTime="59.00" vehicle="bus_22:0.8" depart="2745.00" arrival="2771.00" arrivalPos="30.19" duration="26.00" routeLength="91.51" timeLoss="3.70"/>
    </personinfo>
    <personinfo id="410480716.22.2405" depart="2405.00" type="DEFAULT_PEDTYPE">
        <walk depart="2405.00" departPos="9.98" arrival="2406.00" arrivalPos="10.98" duration="1.00" routeLength="1.00" timeLoss="0.28" maxSpeed="1.39"/>
        <ride waitingTime="233.00" vehicle="bus_22:0.0" depart="2639.00" arrival="2892.00" arrivalPos="138.89" duration="253.00" routeLength="934.64" timeLoss="24.06"/>
    </personinfo>
    <personinfo id="410462101.22.1860" depart="1860.00" type="DEFAULT_PEDTYPE">
        <walk depart="1860.00" departPos="11.46" arrival="1861.00" arrivalPos="12.46" duration="1.00" routeLength="1.00" timeLoss="0.28" maxSpeed="1.39"/>
        <ride waitingTime="101.00" vehicle="bus_22:0.3" depart="1962.00" arrival="2907.00" arrivalPos="159.75" duration="945.00" routeLength="2915.12" timeLoss="205.03"/>
    </personinfo>
    <personinfo id="1855320978.43.764" depart="764.00" type="DEFAULT_PEDTYPE">
        <walk depart="764.00" departPos="29.59" arrival="765.00" arrivalPos="30.59" duration="1.00" routeLength="1.00" timeLoss="0.28" maxSpeed="1.39"/>
        <ride waitingTime="2090.00" vehicle="bus_43:0.0" depart="2855.00" arrival="2911.00" arrivalPos="68.27" duration="56.00" routeLength="201.98" timeLoss="6.76"/>
    </personinfo>
    <personinfo id="410462103.22.205" depart="205.00" type="DEFAULT_PEDTYPE">
        <walk depart="205.00" departPos="51.46" arrival="206.00" arrivalPos="52.46" duration="1.00" routeLength="1.00" timeLoss="0.28" maxSpeed="1.39"/>
        <ride waitingTime="778.00" vehicle="bus_22:0.0" depart="984.00" arrival="2929.00" arrivalPos="37.17" duration="1945.00" routeLength="6131.33" timeLoss="277.63"/>
    </personinfo>
    <personinfo id="1855320978.43.1615" depart="1615.00" type="DEFAULT_PEDTYPE">
        <walk depart="1615.00" departPos="29.59" arrival="1616.00" arrivalPos="30.59" duration="1.00" routeLength="1.00" timeLoss="0.28" maxSpeed="1.39"/>
        <ride waitingTime="1239.00" vehicle="bus_43:0.0" depart="2855.00" arrival="3015.00" arrivalPos="108.30" duration="160.00" routeLength="242.00" timeLoss="10.02"/>
    </personinfo>
    <personinfo id="410486991.43.2791" depart="2791.00" type="DEFAULT_PEDTYPE">
        <walk depart="2791.00" departPos="194.33" arrival="2792.00" arrivalPos="195.33" duration="1.00" routeLength="1.00" timeLoss="0.28" maxSpeed="1.39"/>
        <ride waitingTime="103.00" vehicle="bus_43:0.3" depart="2895.00" arrival="3021.00" arrivalPos="60.88" duration="126.00" routeLength="458.93" timeLoss="14.07"/>
    </personinfo>
    <personinfo id="1847853709.43.1149" depart="1149.00" type="DEFAULT_PEDTYPE">
        <walk depart="1149.00" departPos="16.23" arrival="1150.00" arrivalPos="17.23" duration="1.00" routeLength="1.00" timeLoss="0.28" maxSpeed="1.39"/>
        <ride waitingTime="111.00" vehicle="bus_43:0.4" depart="1261.00" arrival="3050.00" arrivalPos="60.86" duration="1789.00" routeLength="6504.46" timeLoss="135.58"/>
    </personinfo>
    <personinfo id="410462211.43.2579" depart="2579.00" type="DEFAULT_PEDTYPE">
        <walk depart="2579.00" departPos="18.63" arrival="2580.00" arrivalPos="19.63" duration="1.00" routeLength="1.00" timeLoss="0.28" maxSpeed="1.39"/>
        <ride waitingTime="68.00" vehicle="bus_43:0.4" depart="2648.00" arrival="3050.00" arrivalPos="60.86" duration="402.00" routeLength="1510.79" timeLoss="33.53"/>
    </personinfo>
    <personinfo id="410482520.43.1887" depart="1887.00" type="DEFAULT_PEDTYPE">
        <walk depart="1887.00" departPos="2.85" arrival="1888.00" arrivalPos="3.85" duration="1.00" routeLength="1.00" timeLoss="0.28" maxSpeed="1.39"/>
        <ride waitingTime="671.00" vehicle="bus_22:0.2" depart="2559.00" arrival="3052.00" arrivalPos="98.68" duration="493.00" routeLength="1843.58" timeLoss="42.35"/>
    </personinfo>
    <personinfo id="1531005322.22.965" depart="965.00" type="DEFAULT_PEDTYPE">
        <walk depart="965.00" departPos="12.13" arrival="966.00" arrivalPos="13.13" duration="1.00" routeLength="1.00" timeLoss="0.28" maxSpeed="1.39"/>
        <ride waitingTime="423.00" vehicle="bus_22:0.0" depart="1389.00" arrival="3121.00" arrivalPos="39.40" duration="1732.00" routeLength="5791.19" timeLoss="146.59"/>
    </personinfo>
    <personinfo id="410486991.43.2557" depart="2557.00" type="DEFAULT_PEDTYPE">
        <walk depart="2557.00" departPos="194.33" arrival="2558.00" arrivalPos="195.33" duration="1.00" routeLength="1.00" timeLoss="0.28" maxSpeed="1.39"/>
        <ride waitingTime="337.00" vehicle="bus_43:0.3" depart="2895.00" arrival="3132.00" arrivalPos="29.59" duration="237.00" routeLength="866.38" timeLoss="24.70"/>
    </personinfo>
    <personinfo id="1847853709.43.804" depart="804.00" type="DEFAULT_PEDTYPE">
        <walk depart="804.00" departPos="16.23" arrival="805.00" arrivalPos="17.23" duration="1.00" routeLength="1.00" timeLoss="0.28" maxSpeed="1.39"/>
        <ride waitingTime="246.00" vehicle="bus_43:0.3" depart="1051.00" arrival="3203.00" arrivalPos="11.11" duration="2152.00" routeLength="7162.54" timeLoss="170.12"/>
    </personinfo>
    <personinfo id="410482520.43.1631" depart="1631.00" type="DEFAULT_PEDTYPE">
        <walk depart="1631.00" departPos="2.85" arrival="1632.00" arrivalPos="3.85" duration="1.00" routeLength="1.00" timeLoss="0.28" maxSpeed="1.39"/>
        <ride waitingTime="927.00" vehicle="bus_22:0.2" depart="2559.00" arrival="3212.00" arrivalPos="258.31" duration="653.00" routeLength="2263.98" timeLoss="56.83"/>
    </personinfo>
    <personinfo id="410462103.22.502" depart="502.00" type="DEFAULT_PEDTYPE">
        <walk depart="502.00" departPos="51.46" arrival="503.00" arrivalPos="52.46" duration="1.00" routeLength="1.00" timeLoss="0.28" maxSpeed="1.39"/>
        <ride waitingTime="481.00" vehicle="bus_22:0.0" depart="984.00" arrival="3235.00" arrivalPos="32.66" duration="2251.00" routeLength="7228.67" timeLoss="307.00"/>
    </personinfo>
    <personinfo id="410464248.22.2323" depart="2323.00" type="DEFAULT_PEDTYPE">
        <walk depart="2323.00" departPos="23.64" arrival="2324.00" arrivalPos="24.64" duration="1.00" routeLength="1.00" timeLoss="0.28" maxSpeed="1.39"/>
        <ride waitingTime="691.00" vehicle="bus_22:0.0" depart="3015.00" arrival="3235.00" arrivalPos="32.66" duration="220.00" routeLength="785.62" timeLoss="21.40"/>
    </personinfo>
    <personinfo id="410462293.43.645" depart="645.00" type="DEFAULT_PEDTYPE">
        <walk depart="645.00" departPos="10.48" arrival="646.00" arrivalPos="11.48" duration="1.00" routeLength="1.00" timeLoss="0.28" maxSpeed="1.39"/>
        <ride waitingTime="934.00" vehicle="bus_43:0.0" depart="1580.00" arrival="3240.00" arrivalPos="33.16" duration="1660.00" routeLength="3786.39" timeLoss="105.60"/>
    </personinfo>
    <personinfo id="410486955.43.1041" depart="1041.00" type="DEFAULT_PEDTYPE">
        <walk depart="1041.00" departPos="49.88" arrival="1042.00" arrivalPos="50.88" duration="1.00" routeLength="1.00" timeLoss="0.28" maxSpeed="1.39"/>
        <ride waitingTime="1332.00" vehicle="bus_43:0.0" depart="2374.00" arrival="3240.00" arrivalPos="33.16" duration="866.00" routeLength="1850.32" timeLoss="54.77"/>
    </personinfo>
    <personinfo id="1847853709.43.2110" depart="2110.00" type="DEFAULT_PEDTYPE">
        <walk depart="2110.00" departPos="16.23" arrival="2111.00" arrivalPos="17.23" duration="1.00" routeLength="1.00" timeLoss="0.28" maxSpeed="1.39"/>
        <ride waitingTime="120.00" vehicle="bus_43:0.7" depart="2231.00" arrival="3260.00" arrivalPos="10.64" duration="1029.00" routeLength="3870.68" timeLoss="82.98"/>
    </personinfo>
    <personinfo id="410474760.43.2360" depart="2360.00" type="DEFAULT_PEDTYPE">
        <walk depart="2360.00" departPos="38.27" arrival="2361.00" arrivalPos="39.27" duration="1.00" routeLength="1.00" timeLoss="0.28" maxSpeed="1.39"/>
        <ride waitingTime="25.00" vehicle="bus_43:0.6" depart="2386.00" arrival="3363.00" arrivalPos="10.15" duration="977.00" routeLength="3316.29" timeLoss="75.18"/>
    </personinfo>
    <personinfo id="410465917.22.630" depart="630.00" type="DEFAULT_PEDTYPE">
        <walk depart="630.00" departPos="21.70" arrival="631.00" arrivalPos="22.70" duration="1.00" routeLength="1.00" timeLoss="0.28" maxSpeed="1.39"/>
        <ride waitingTime="2606.00" vehicle="bus_22:0.0" depart="3237.00" arrival="3367.00" arrivalPos="10.72" duration="130.00" routeLength="479.16" timeLoss="11.16"/>
    </personinfo>
    <personinfo id="410465917.22.734" depart="734.00" type="DEFAULT_PEDTYPE">
        <walk depart="734.00" departPos="21.70" arrival="735.00" arrivalPos="22.70" duration="1.00" routeLength="1.00" timeLoss="0.28" maxSpeed="1.39"/>
        <ride waitingTime="2502.00" vehicle="bus_22:0.0" depart="3237.00" arrival="3367.00" arrivalPos="10.72" duration="130.00" routeLength="479.16" timeLoss="11.16"/>
    </personinfo>
    <personinfo id="410465917.22.2148" depart="2148.00" type="DEFAULT_PEDTYPE">
        <walk depart="2148.00" departPos="21.70" arrival="2149.00" arrivalPos="22.70" duration="1.00" routeLength="1.00" timeLoss="0.28" maxSpeed="1.39"/>
        <ride waitingTime="1088.00" vehicle="bus_22:0.0" depart="3237.00" arrival="3368.00" arrivalPos="10.72" duration="131.00" routeLength="479.11" timeLoss="11.16"/>
    </personinfo>
    <personinfo id="410465917.22.2588" depart="2588.00" type="DEFAULT_PEDTYPE">
        <walk depart="2588.00" departPos="21.70" arrival="2589.00" arrivalPos="22.70" duration="1.00" routeLength="1.00" timeLoss="0.28" maxSpeed="1.39"/>
        <ride waitingTime="648.00" vehicle="bus_22:0.0" depart="3237.00" arrival="3368.00" arrivalPos="10.72" duration="131.00" routeLength="479.11" timeLoss="11.16"/>
    </personinfo>
    <personinfo id="410465917.22.3138" depart="3138.00" type="DEFAULT_PEDTYPE">
        <walk depart="3138.00" departPos="21.70" arrival="3139.00" arrivalPos="22.70" duration="1.00" routeLength="1.00" timeLoss="0.28" maxSpeed="1.39"/>
        <ride waitingTime="98.00" vehicle="bus_22:0.0" depart="3237.00" arrival="3369.00" arrivalPos="10.72" duration="132.00" routeLength="479.11" timeLoss="11.16"/>
    </personinfo>
    <personinfo id="410475114.22.1637" depart="1637.00" type="DEFAULT_PEDTYPE">
        <walk depart="1637.00" departPos="84.99" arrival="1638.00" arrivalPos="85.99" duration="1.00" routeLength="1.00" timeLoss="0.28" maxSpeed="1.39"/>
        <ride waitingTime="490.00" vehicle="bus_22:0.2" depart="2128.00" arrival="3421.00" arrivalPos="29.17" duration="1293.00" routeLength="3818.21" timeLoss="229.76"/>
    </personinfo>
    <personinfo id="410482570.43.2732" depart="2732.00" type="DEFAULT_PEDTYPE">
        <walk depart="2732.00" departPos="91.56" arrival="2733.00" arrivalPos="92.56" duration="1.00" routeLength="1.00" timeLoss="0.28" maxSpeed="1.39"/>
        <ride waitingTime="435.00" vehicle="bus_22:0.2" depart="3168.00" arrival="3421.00" arrivalPos="29.17" duration="253.00" routeLength="829.20" timeLoss="23.77"/>
    </personinfo>
    <personinfo id="410459897.22.39" depart="39.00" type="DEFAULT_PEDTYPE">
        <walk depart="39.00" departPos="23.17" arrival="40.00" arrivalPos="24.17" duration="1.00" routeLength="1.00" timeLoss="0.28" maxSpeed="1.39"/>
        <ride waitingTime="247.00" vehicle="bus_22:0.0" depart="287.00" arrival="3493.00" arrivalPos="10.28" duration="3206.00" routeLength="10783.97" timeLoss="384.89"/>
    </personinfo>
    <personinfo id="410462103.22.412" depart="412.00" type="DEFAULT_PEDTYPE">
        <walk depart="412.00" departPos="51.46" arrival="413.00" arrivalPos="52.46" duration="1.00" routeLength="1.00" timeLoss="0.28" maxSpeed="1.39"/>
        <ride waitingTime="571.00" vehicle="bus_22:0.0" depart="984.00" arrival="3493.00" arrivalPos="10.28" duration="2509.00" routeLength="8165.53" timeLoss="329.51"/>
    </personinfo>
    <personinfo id="410480724.22.577" depart="577.00" type="DEFAULT_PEDTYPE">
        <walk depart="577.00" departPos="26.17" arrival="578.00" arrivalPos="27.17" duration="1.00" routeLength="1.00" timeLoss="0.28" maxSpeed="1.39"/>
        <ride waitingTime="2352.00" vehicle="bus_22:0.0" depart="2930.00" arrival="3494.00" arrivalPos="10.28" duration="564.00" routeLength="2034.20" timeLoss="51.89"/>
    </personinfo>
    <personinfo id="410465917.22.1130" depart="1130.00" type="DEFAULT_PEDTYPE">
        <walk depart="1130.00" departPos="21.70" arrival="1131.00" arrivalPos="22.70" duration="1.00" routeLength="1.00" timeLoss="0.28" maxSpeed="1.39"/>
        <ride waitingTime="2106.00" vehicle="bus_22:0.0" depart="3237.00" arrival="3494.00" arrivalPos="10.28" duration="257.00" routeLength="936.86" timeLoss="22.51"/>
    </personinfo>
    <personinfo id="410465917.22.2301" depart="2301.00" type="DEFAULT_PEDTYPE">
        <walk depart="2301.00" departPos="21.70" arrival="2302.00" arrivalPos="22.70" duration="1.00" routeLength="1.00" timeLoss="0.28" maxSpeed="1.39"/>
        <ride waitingTime="935.00" vehicle="bus_22:0.0" depart="3237.00" arrival="3495.00" arrivalPos="10.28" duration="258.00" routeLength="936.86" timeLoss="22.51"/>
    </personinfo>
    <personinfo id="410465915.22.469" depart="469.00" type="DEFAULT_PEDTYPE">
        <walk depart="469.00" departPos="138.08" arrival="580.00" arrivalPos="0.00" duration="111.00" routeLength="138.08" timeLoss="11.58" maxSpeed="1.39"/>
        <ride waitingTime="2790.00" vehicle="bus_22:0.0" depart="3370.00" arrival="3495.00" arrivalPos="10.28" duration="125.00" routeLength="457.82" timeLoss="11.35"/>
    </personinfo>
    <personinfo id="410465915.22.1842" depart="1842.00" type="DEFAULT_PEDTYPE">
        <walk depart="1842.00" departPos="138.08" arrival="1953.00" arrivalPos="0.00" duration="111.00" routeLength="138.08" timeLoss="11.58" maxSpeed="1.39"/>
        <ride waitingTime="1417.00" vehicle="bus_22:0.0" depart="3370.00" arrival="3496.00" arrivalPos="10.28" duration="126.00" routeLength="457.82" timeLoss="11.35"/>
    </personinfo>
    <personinfo id="410465915.22.2740" depart="2740.00" type="DEFAULT_PEDTYPE">
        <walk depart="2740.00" departPos="138.08" arrival="2852.00" arrivalPos="0.00" duration="112.00" routeLength="138.08" timeLoss="12.58" maxSpeed="1.39"/>
        <ride waitingTime="518.00" vehicle="bus_22:0.0" depart="3370.00" arrival="3496.00" arrivalPos="10.28" duration="126.00" routeLength="457.75" timeLoss="11.35"/>
    </personinfo>
    <personinfo id="410459901.22.2770" depart="2770.00" type="DEFAULT_PEDTYPE">
        <walk depart="2770.00" departPos="553.15" arrival="3213.00" arrivalPos="0.00" duration="443.00" routeLength="553.15" timeLoss="44.73" maxSpeed="1.39"/>
        <ride waitingTime="223.00" vehicle="bus_22:0.11" depart="3436.00" arrival="3621.00" arrivalPos="30.20" duration="185.00" routeLength="669.48" timeLoss="20.72"/>
    </personinfo>
    <personinfo id="410482570.22.3147" depart="3147.00" type="DEFAULT_PEDTYPE">
        <walk depart="3147.00" departPos="91.56" arrival="3148.00" arrivalPos="92.56" duration="1.00" routeLength="1.00" timeLoss="0.28" maxSpeed="1.39"/>
        <ride waitingTime="20.00" vehicle="bus_22:0.2" depart="3168.00" arrival="3638.00" arrivalPos="20.97" duration="470.00" routeLength="1360.31" timeLoss="38.23"/>
    </personinfo>
    <personinfo id="410480722.22.2101" depart="2101.00" type="DEFAULT_PEDTYPE">
        <walk depart="2101.00" departPos="184.20" arrival="2102.00" arrivalPos="185.20" duration="1.00" routeLength="1.00" timeLoss="0.28" maxSpeed="1.39"/>
        <ride waitingTime="634.00" vehicle="bus_22:0.0" depart="2736.00" arrival="3692.00" arrivalPos="80.51" duration="956.00" routeLength="3470.06" timeLoss="87.69"/>
    </personinfo>
    <personinfo id="410464248.22.1759" depart="1759.00" type="DEFAULT_PEDTYPE">
        <walk depart="1759.00" departPos="23.64" arrival="1760.00" arrivalPos="24.64" duration="1.00" routeLength="1.00" timeLoss="0.28" maxSpeed="1.39"/>
        <ride waitingTime="1255.00" vehicle="bus_22:0.0" depart="3015.00" arrival="3692.00" arrivalPos="80.51" duration="677.00" routeLength="2446.56" timeLoss="61.31"/>
    </personinfo>
    <personinfo id="410465917.22.1601" depart="1601.00" type="DEFAULT_PEDTYPE">
        <walk depart="1601.00" departPos="21.70" arrival="1602.00" arrivalPos="22.70" duration="1.00" routeLength="1.00" timeLoss="0.28" maxSpeed="1.39"/>
        <ride waitingTime="1635.00" vehicle="bus_22:0.0" depart="3237.00" arrival="3693.00" arrivalPos="80.51" duration="456.00" routeLength="1660.93" timeLoss="39.91"/>
    </personinfo>
    <personinfo id="410465917.22.2605" depart="2605.00" type="DEFAULT_PEDTYPE">
        <walk depart="2605.00" departPos="21.70" arrival="2606.00" arrivalPos="22.70" duration="1.00" routeLength="1.00" timeLoss="0.28" maxSpeed="1.39"/>
        <ride waitingTime="631.00" vehicle="bus_22:0.0" depart="3237.00" arrival="3693.00" arrivalPos="80.51" duration="456.00" routeLength="1660.93" timeLoss="39.91"/>
    </personinfo>
    <personinfo id="410465915.22.2847" depart="2847.00" type="DEFAULT_PEDTYPE">
        <walk depart="2847.00" departPos="138.08" arrival="2959.00" arrivalPos="0.00" duration="112.00" routeLength="138.08" timeLoss="12.58" maxSpeed="1.39"/>
        <ride waitingTime="411.00" vehicle="bus_22:0.0" depart="3370.00" arrival="3694.00" arrivalPos="80.51" duration="324.00" routeLength="1181.82" timeLoss="28.75"/>
    </personinfo>
    <personinfo id="410462762.22.723" depart="723.00" type="DEFAULT_PEDTYPE">
        <walk depart="723.00" departPos="652.84" arrival="1245.00" arrivalPos="0.00" duration="522.00" routeLength="652.84" timeLoss="51.96" maxSpeed="1.39"/>
        <ride waitingTime="2253.00" vehicle="bus_22:0.0" depart="3498.00" arrival="3694.00" arrivalPos="80.51" duration="196.00" routeLength="724.07" timeLoss="17.40"/>
    </personinfo>
    <personinfo id="410486516.43.3047" depart="3047.00" type="DEFAULT_PEDTYPE">
        <walk depart="3047.00" departPos="97.30" arrival="3048.00" arrivalPos="98.30" duration="1.00" routeLength="1.00" timeLoss="0.28" maxSpeed="1.39"/>
        <ride waitingTime="53.00" vehicle="bus_43:0.0" depart="3101.00" arrival="3706.00" arrivalPos="24.55" duration="605.00" routeLength="1202.83" timeLoss="309.64"/>
    </personinfo>
    <personinfo id="410482570.22.2627" depart="2627.00" type="DEFAULT_PEDTYPE">
        <walk depart="2627.00" departPos="91.56" arrival="2628.00" arrivalPos="92.56" duration="1.00" routeLength="1.00" timeLoss="0.28" maxSpeed="1.39"/>
        <ride waitingTime="540.00" vehicle="bus_22:0.2" depart="3168.00" arrival="3768.00" arrivalPos="323.23" duration="600.00" routeLength="1836.70" timeLoss="51.05"/>
    </personinfo>
    <personinfo id="410471030.22.2702" depart="2702.00" type="DEFAULT_PEDTYPE">
        <walk depart="2702.00" departPos="18.18" arrival="2703.00" arrivalPos="19.18" duration="1.00" routeLength="1.00" timeLoss="0.28" maxSpeed="1.39"/>
        <ride waitingTime="791.00" vehicle="bus_22:0.2" depart="3494.00" arrival="3768.00" arrivalPos="323.23" duration="274.00" routeLength="1007.52" timeLoss="27.28"/>
    </personinfo>
    <personinfo id="410467153.22.2523" depart="2523.00" type="DEFAULT_PEDTYPE">
        <walk depart="2523.00" departPos="8.01" arrival="2524.00" arrivalPos="9.01" duration="1.00" routeLength="1.00" timeLoss="0.28" maxSpeed="1.39"/>
        <ride waitingTime="136.00" vehicle="bus_22:0.6" depart="2660.00" arrival="3792.00" arrivalPos="14.16" duration="1132.00" routeLength="2900.56" timeLoss="333.56"/>
    </personinfo>
    <personinfo id="410462103.22.1381" depart="1381.00" type="DEFAULT_PEDTYPE">
        <walk depart="1381.00" departPos="51.46" arrival="1382.00" arrivalPos="52.46" duration="1.00" routeLength="1.00" timeLoss="0.28" maxSpeed="1.39"/>
        <ride waitingTime="380.00" vehicle="bus_22:0.2" depart="1762.00" arrival="3927.00" arrivalPos="37.15" duration="2165.00" routeLength="6131.32" timeLoss="370.62"/>
    </personinfo>
    <personinfo id="410465917.22.589" depart="589.00" type="DEFAULT_PEDTYPE">
        <walk depart="589.00" departPos="21.70" arrival="590.00" arrivalPos="22.70" duration="1.00" routeLength="1.00" timeLoss="0.28" maxSpeed="1.39"/>
        <ride waitingTime="2647.00" vehicle="bus_22:0.0" depart="3237.00" arrival="3934.00" arrivalPos="267.82" duration="697.00" routeLength="2335.69" timeLoss="55.35"/>
    </personinfo>