<?xml version="1.0" encoding="UTF-8"?>

<!-- generated on 2024-04-15 12:52:57 by Eclipse SUMO sumo Version 1.14.1
<configuration xmlns:xsi="http://www.w3.org/2001/XMLSchema-instance" xsi:noNamespaceSchemaLocation="http://sumo.dlr.de/xsd/sumoConfiguration.xsd">

    <input>
        <net-file value="singapore/singapore.net.xml"/>
        <route-files value="singapore/busFlows.rou.xml"/>
        <additional-files value="singapore/busstops.xml"/>
    </input>

    <output>
        <tripinfo-output value="tripinfo.xml"/>
    </output>

    <processing>
        <no-internal-links value="true"/>
    </processing>

    <traci_server>
        <remote-port value="59233"/>
    </traci_server>

</configuration>
-->

<tripinfos xmlns:xsi="http://www.w3.org/2001/XMLSchema-instance" xsi:noNamespaceSchemaLocation="http://sumo.dlr.de/xsd/tripinfo_file.xsd">
    <personinfo id="410462103.22.428" depart="428.00" type="DEFAULT_PEDTYPE">
        <walk depart="428.00" departPos="51.46" arrival="429.00" arrivalPos="52.46" duration="1.00" routeLength="1.00" timeLoss="0.28" maxSpeed="1.39"/>
        <ride waitingTime="641.00" vehicle="bus_22:0.0" depart="1070.00" arrival="1600.00" arrivalPos="13.84" duration="530.00" routeLength="1602.73" timeLoss="46.14"/>
    </personinfo>
    <personinfo id="410475114.22.378" depart="378.00" type="DEFAULT_PEDTYPE">
        <walk depart="378.00" departPos="84.99" arrival="379.00" arrivalPos="85.99" duration="1.00" routeLength="1.00" timeLoss="0.28" maxSpeed="1.39"/>
        <ride waitingTime="975.00" vehicle="bus_22:0.0" depart="1354.00" arrival="1601.00" arrivalPos="13.84" duration="247.00" routeLength="880.76" timeLoss="29.21"/>
    </personinfo>
    <personinfo id="410462103.22.626" depart="626.00" type="DEFAULT_PEDTYPE">
        <walk depart="626.00" departPos="51.46" arrival="627.00" arrivalPos="52.46" duration="1.00" routeLength="1.00" timeLoss="0.28" maxSpeed="1.39"/>
        <ride waitingTime="443.00" vehicle="bus_22:0.0" depart="1070.00" arrival="1797.00" arrivalPos="31.76" duration="727.00" routeLength="2163.15" timeLoss="59.45"/>
    </personinfo>
    <personinfo id="410483103.22.1058" depart="1058.00" type="DEFAULT_PEDTYPE">
        <walk depart="1058.00" departPos="165.36" arrival="1059.00" arrivalPos="166.36" duration="1.00" routeLength="1.00" timeLoss="0.28" maxSpeed="1.39"/>
        <ride waitingTime="473.00" vehicle="bus_22:0.0" depart="1532.00" arrival="1945.00" arrivalPos="14.17" duration="413.00" routeLength="1001.26" timeLoss="30.81"/>
    </personinfo>
    <personinfo id="410462211.43.111" depart="111.00" type="DEFAULT_PEDTYPE">
        <walk depart="111.00" departPos="18.63" arrival="112.00" arrivalPos="19.63" duration="1.00" routeLength="1.00" timeLoss="0.28" maxSpeed="1.39"/>
        <ride waitingTime="1395.00" vehicle="bus_43:0.0" depart="1507.00" arrival="1969.00" arrivalPos="60.88" duration="462.00" routeLength="1510.85" timeLoss="37.55"/>
    </personinfo>
    <personinfo id="410459901.22.280" depart="280.00" type="DEFAULT_PEDTYPE">
        <walk depart="280.00" departPos="553.15" arrival="723.00" arrivalPos="0.00" duration="443.00" routeLength="553.15" timeLoss="44.73" maxSpeed="1.39"/>
        <ride waitingTime="102.00" vehicle="bus_22:0.1" depart="825.00" arrival="1998.00" arrivalPos="24.59" duration="1173.00" routeLength="4238.58" timeLoss="93.23"/>
    </personinfo>
    <personinfo id="410475114.43.1274" depart="1274.00" type="DEFAULT_PEDTYPE">
        <walk depart="1274.00" departPos="84.99" arrival="1275.00" arrivalPos="85.99" duration="1.00" routeLength="1.00" timeLoss="0.28" maxSpeed="1.39"/>
        <ride waitingTime="79.00" vehicle="bus_22:0.0" depart="1354.00" arrival="2086.00" arrivalPos="159.79" duration="732.00" routeLength="2153.25" timeLoss="65.85"/>
    </personinfo>
    <personinfo id="410462293.43.1939" depart="1939.00" type="DEFAULT_PEDTYPE">
        <walk depart="1939.00" departPos="10.48" arrival="1940.00" arrivalPos="11.48" duration="1.00" routeLength="1.00" timeLoss="0.28" maxSpeed="1.39"/>
        <ride waitingTime="96.00" vehicle="bus_43:0.1" depart="2036.00" arrival="2151.00" arrivalPos="29.62" duration="115.00" routeLength="425.31" timeLoss="11.29"/>
    </personinfo>
    <personinfo id="410459904.22.1083" depart="1083.00" type="DEFAULT_PEDTYPE">
        <walk depart="1083.00" departPos="19.22" arrival="1084.00" arrivalPos="20.22" duration="1.00" routeLength="1.00" timeLoss="0.28" maxSpeed="1.39"/>
        <ride waitingTime="433.00" vehicle="bus_22:0.2" depart="1517.00" arrival="2185.00" arrivalPos="62.45" duration="668.00" routeLength="2526.93" timeLoss="51.71"/>
    </personinfo>
    <personinfo id="410459901.22.297" depart="297.00" type="DEFAULT_PEDTYPE">
        <walk depart="297.00" departPos="553.15" arrival="738.00" arrivalPos="0.00" duration="441.00" routeLength="553.15" timeLoss="42.73" maxSpeed="1.39"/>
        <ride waitingTime="87.00" vehicle="bus_22:0.1" depart="825.00" arrival="2187.00" arrivalPos="13.84" duration="1362.00" routeLength="4799.01" timeLoss="108.54"/>
    </personinfo>
    <personinfo id="410459904.22.1874" depart="1874.00" type="DEFAULT_PEDTYPE">
        <walk depart="1874.00" departPos="19.22" arrival="1875.00" arrivalPos="20.22" duration="1.00" routeLength="1.00" timeLoss="0.28" maxSpeed="1.39"/>
        <ride waitingTime="244.00" vehicle="bus_22:0.3" depart="2119.00" arrival="2235.00" arrivalPos="48.70" duration="116.00" routeLength="431.08" timeLoss="10.88"/>
    </personinfo>
    <personinfo id="410486991.43.172" depart="172.00" type="DEFAULT_PEDTYPE">
        <walk depart="172.00" departPos="194.33" arrival="173.00" arrivalPos="195.33" duration="1.00" routeLength="1.00" timeLoss="0.28" maxSpeed="1.39"/>
        <ride waitingTime="1672.00" vehicle="bus_43:0.0" depart="1845.00" arrival="2338.00" arrivalPos="108.28" duration="493.00" routeLength="1791.58" timeLoss="50.10"/>
    </personinfo>
    <personinfo id="410459651.22.78" depart="78.00" type="DEFAULT_PEDTYPE">
        <walk depart="78.00" departPos="15.18" arrival="79.00" arrivalPos="16.18" duration="1.00" routeLength="1.00" timeLoss="0.28" maxSpeed="1.39"/>
        <ride waitingTime="627.00" vehicle="bus_22:0.0" depart="706.00" arrival="2389.00" arrivalPos="258.28" duration="1683.00" routeLength="5237.15" timeLoss="134.74"/>
    </personinfo>
    <personinfo id="410486955.43.16" depart="16.00" type="DEFAULT_PEDTYPE">
        <walk depart="16.00" departPos="49.88" arrival="17.00" arrivalPos="50.88" duration="1.00" routeLength="1.00" timeLoss="0.28" maxSpeed="1.39"/>
        <ride waitingTime="1954.00" vehicle="bus_43:0.0" depart="1971.00" arrival="2480.00" arrivalPos="33.16" duration="509.00" routeLength="1850.39" timeLoss="52.75"/>
    </personinfo>
    <personinfo id="410459901.22.827" depart="827.00" type="DEFAULT_PEDTYPE">
        <walk depart="827.00" departPos="553.15" arrival="1269.00" arrivalPos="0.00" duration="442.00" routeLength="553.15" timeLoss="43.73" maxSpeed="1.39"/>
        <ride waitingTime="67.00" vehicle="bus_22:0.2" depart="1336.00" arrival="2513.00" arrivalPos="24.59" duration="1177.00" routeLength="4238.59" timeLoss="91.24"/>
    </personinfo>
    <personinfo id="1855320978.43.479" depart="479.00" type="DEFAULT_PEDTYPE">
        <walk depart="479.00" departPos="29.59" arrival="480.00" arrivalPos="30.59" duration="1.00" routeLength="1.00" timeLoss="0.28" maxSpeed="1.39"/>
        <ride waitingTime="1787.00" vehicle="bus_43:0.0" depart="2267.00" arrival="2582.00" arrivalPos="95.98" duration="315.00" routeLength="1124.57" timeLoss="37.75"/>
    </personinfo>
    <personinfo id="410482564.43.660" depart="660.00" type="DEFAULT_PEDTYPE">
        <walk depart="660.00" departPos="87.68" arrival="661.00" arrivalPos="88.68" duration="1.00" routeLength="1.00" timeLoss="0.28" maxSpeed="1.39"/>
        <ride waitingTime="1615.00" vehicle="bus_22:0.0" depart="2276.00" arrival="2656.00" arrivalPos="29.18" duration="380.00" routeLength="1093.91" timeLoss="25.22"/>
    </personinfo>
    <personinfo id="410462103.22.2087" depart="2087.00" type="DEFAULT_PEDTYPE">
        <walk depart="2087.00" departPos="51.46" arrival="2088.00" arrivalPos="52.46" duration="1.00" routeLength="1.00" timeLoss="0.28" maxSpeed="1.39"/>
        <ride waitingTime="147.00" vehicle="bus_22:0.2" depart="2235.00" arrival="2663.00" arrivalPos="176.36" duration="428.00" routeLength="1357.81" timeLoss="32.86"/>
    </personinfo>
    <personinfo id="410459904.22.665" depart="665.00" type="DEFAULT_PEDTYPE">
        <walk depart="665.00" departPos="19.22" arrival="666.00" arrivalPos="20.22" duration="1.00" routeLength="1.00" timeLoss="0.28" maxSpeed="1.39"/>
        <ride waitingTime="387.00" vehicle="bus_22:0.1" depart="1053.00" arrival="2678.00" arrivalPos="98.67" duration="1625.00" routeLength="5973.14" timeLoss="128.17"/>
    </personinfo>
    <personinfo id="410459904.22.1292" depart="1292.00" type="DEFAULT_PEDTYPE">
        <walk depart="1292.00" departPos="19.22" arrival="1293.00" arrivalPos="20.22" duration="1.00" routeLength="1.00" timeLoss="0.28" maxSpeed="1.39"/>
        <ride waitingTime="224.00" vehicle="bus_22:0.2" depart="1517.00" arrival="2758.00" arrivalPos="13.84" duration="1241.00" routeLength="4129.59" timeLoss="90.83"/>
    </personinfo>
    <personinfo id="1531005322.22.2236" depart="2236.00" type="DEFAULT_PEDTYPE">
        <walk depart="2236.00" departPos="12.13" arrival="2237.00" arrivalPos="13.13" duration="1.00" routeLength="1.00" timeLoss="0.28" maxSpeed="1.39"/>
        <ride waitingTime="340.00" vehicle="bus_22:0.2" depart="2577.00" arrival="2758.00" arrivalPos="13.84" duration="181.00" routeLength="560.50" timeLoss="15.31"/>
    </personinfo>
    <personinfo id="410462266.43.1596" depart="1596.00" type="DEFAULT_PEDTYPE">
        <walk depart="1596.00" departPos="50.19" arrival="1597.00" arrivalPos="51.19" duration="1.00" routeLength="1.00" timeLoss="0.28" maxSpeed="1.39"/>
        <ride waitingTime="392.00" vehicle="bus_43:0.1" depart="1989.00" arrival="2784.00" arrivalPos="29.60" duration="795.00" routeLength="2453.31" timeLoss="67.69"/>
    </personinfo>
    <personinfo id="1531005322.22.1282" depart="1282.00" type="DEFAULT_PEDTYPE">
        <walk depart="1282.00" departPos="12.13" arrival="1283.00" arrivalPos="13.13" duration="1.00" routeLength="1.00" timeLoss="0.28" maxSpeed="1.39"/>
        <ride waitingTime="161.00" vehicle="bus_22:0.0" depart="1444.00" arrival="2799.00" arrivalPos="20.98" duration="1355.00" routeLength="4029.09" timeLoss="106.36"/>
    </personinfo>
    <personinfo id="410482520.22.1124" depart="1124.00" type="DEFAULT_PEDTYPE">
        <walk depart="1124.00" departPos="2.85" arrival="1125.00" arrivalPos="3.85" duration="1.00" routeLength="1.00" timeLoss="0.28" maxSpeed="1.39"/>
        <ride waitingTime="522.00" vehicle="bus_22:0.0" depart="1647.00" arrival="2799.00" arrivalPos="20.98" duration="1152.00" routeLength="3468.58" timeLoss="88.05"/>
    </personinfo>
    <personinfo id="410471030.22.1708" depart="1708.00" type="DEFAULT_PEDTYPE">
        <walk depart="1708.00" departPos="18.18" arrival="1709.00" arrivalPos="19.18" duration="1.00" routeLength="1.00" timeLoss="0.28" maxSpeed="1.39"/>
        <ride waitingTime="948.00" vehicle="bus_22:0.0" depart="2657.00" arrival="2799.00" arrivalPos="20.98" duration="142.00" routeLength="531.14" timeLoss="12.46"/>
    </personinfo>
    <personinfo id="1849631273.43.334" depart="334.00" type="DEFAULT_PEDTYPE">
        <walk depart="334.00" departPos="413.46" arrival="666.00" arrivalPos="0.00" duration="332.00" routeLength="413.46" timeLoss="34.31" maxSpeed="1.39"/>
        <ride waitingTime="455.00" vehicle="bus_43:0.0" depart="1121.00" arrival="2859.00" arrivalPos="13.84" duration="1738.00" routeLength="5729.77" timeLoss="189.61"/>
    </personinfo>
    <personinfo id="410460005.22.1423" depart="1423.00" type="DEFAULT_PEDTYPE">
        <walk depart="1423.00" departPos="286.81" arrival="1654.00" arrivalPos="0.00" duration="231.00" routeLength="286.81" timeLoss="24.50" maxSpeed="1.39"/>
        <ride waitingTime="149.00" vehicle="bus_22:0.3" depart="1803.00" arrival="2870.00" arrivalPos="22.46" duration="1067.00" routeLength="3653.99" timeLoss="81.82"/>
    </personinfo>
    <personinfo id="410462103.22.1371" depart="1371.00" type="DEFAULT_PEDTYPE">
        <walk depart="1371.00" departPos="51.46" arrival="1372.00" arrivalPos="52.46" duration="1.00" routeLength="1.00" timeLoss="0.28" maxSpeed="1.39"/>
        <ride waitingTime="349.00" vehicle="bus_22:0.1" depart="1721.00" arrival="2913.00" arrivalPos="10.12" duration="1192.00" routeLength="4188.01" timeLoss="96.56"/>
    </personinfo>
    <personinfo id="1849631273.43.1248" depart="1248.00" type="DEFAULT_PEDTYPE">
        <walk depart="1248.00" departPos="413.46" arrival="1580.00" arrivalPos="0.00" duration="332.00" routeLength="413.46" timeLoss="34.31" maxSpeed="1.39"/>
        <ride waitingTime="250.00" vehicle="bus_43:0.1" depart="1830.00" arrival="2972.00" arrivalPos="40.57" duration="1142.00" routeLength="3724.44" timeLoss="101.67"/>
    </personinfo>
    <personinfo id="410482520.22.2613" depart="2613.00" type="DEFAULT_PEDTYPE">
        <walk depart="2613.00" departPos="2.85" arrival="2614.00" arrivalPos="3.85" duration="1.00" routeLength="1.00" timeLoss="0.28" maxSpeed="1.39"/>
        <ride waitingTime="236.00" vehicle="bus_22:0.2" depart="2850.00" arrival="3001.00" arrivalPos="31.74" duration="151.00" routeLength="560.40" timeLoss="14.34"/>
    </personinfo>
    <personinfo id="410482520.43.1944" depart="1944.00" type="DEFAULT_PEDTYPE">
        <walk depart="1944.00" departPos="2.85" arrival="1945.00" arrivalPos="3.85" duration="1.00" routeLength="1.00" timeLoss="0.28" maxSpeed="1.39"/>
        <ride waitingTime="244.00" vehicle="bus_22:0.1" depart="2189.00" arrival="3009.00" arrivalPos="29.17" duration="820.00" routeLength="2937.42" timeLoss="67.58"/>
    </personinfo>
    <personinfo id="410460005.22.1814" depart="1814.00" type="DEFAULT_PEDTYPE">
        <walk depart="1814.00" departPos="286.81" arrival="2043.00" arrivalPos="0.00" duration="229.00" routeLength="286.81" timeLoss="22.50" maxSpeed="1.39"/>
        <ride waitingTime="359.00" vehicle="bus_22:0.4" depart="2402.00" arrival="3017.00" arrivalPos="48.68" duration="615.00" routeLength="1598.16" timeLoss="41.23"/>
    </personinfo>
    <personinfo id="410459904.22.1099" depart="1099.00" type="DEFAULT_PEDTYPE">
        <walk depart="1099.00" departPos="19.22" arrival="1100.00" arrivalPos="20.22" duration="1.00" routeLength="1.00" timeLoss="0.28" maxSpeed="1.39"/>
        <ride waitingTime="417.00" vehicle="bus_22:0.2" depart="1517.00" arrival="3058.00" arrivalPos="14.15" duration="1541.00" routeLength="4885.91" timeLoss="113.39"/>
    </personinfo>
    <personinfo id="410475114.22.1142" depart="1142.00" type="DEFAULT_PEDTYPE">
        <walk depart="1142.00" departPos="84.99" arrival="1143.00" arrivalPos="85.99" duration="1.00" routeLength="1.00" timeLoss="0.28" maxSpeed="1.39"/>
        <ride waitingTime="211.00" vehicle="bus_22:0.0" depart="1354.00" arrival="3128.00" arrivalPos="138.88" duration="1774.00" routeLength="5283.86" timeLoss="138.34"/>
    </personinfo>
    <personinfo id="410462293.43.208" depart="208.00" type="DEFAULT_PEDTYPE">
        <walk depart="208.00" departPos="10.48" arrival="209.00" arrivalPos="11.48" duration="1.00" routeLength="1.00" timeLoss="0.28" maxSpeed="1.39"/>
        <ride waitingTime="1101.00" vehicle="bus_43:0.0" depart="1310.00" arrival="3170.00" arrivalPos="14.17" duration="1860.00" routeLength="5788.29" timeLoss="195.35"/>
    </personinfo>
    <personinfo id="1849631269.43.2255" depart="2255.00" type="DEFAULT_PEDTYPE">
        <walk depart="2255.00" departPos="160.44" arrival="2384.00" arrivalPos="0.00" duration="129.00" routeLength="160.44" timeLoss="13.48" maxSpeed="1.39"/>
        <ride waitingTime="325.00" vehicle="bus_43:0.3" depart="2709.00" arrival="3188.00" arrivalPos="21.48" duration="479.00" routeLength="1707.53" timeLoss="36.54"/>
    </personinfo>
    <personinfo id="410482520.22.2760" depart="2760.00" type="DEFAULT_PEDTYPE">
        <walk depart="2760.00" departPos="2.85" arrival="2761.00" arrivalPos="3.85" duration="1.00" routeLength="1.00" timeLoss="0.28" maxSpeed="1.39"/>
        <ride waitingTime="89.00" vehicle="bus_22:0.2" depart="2850.00" arrival="3196.00" arrivalPos="159.75" duration="346.00" routeLength="1272.46" timeLoss="33.68"/>
    </personinfo>
    <personinfo id="410459904.22.1844" depart="1844.00" type="DEFAULT_PEDTYPE">
        <walk depart="1844.00" departPos="19.22" arrival="1845.00" arrivalPos="20.22" duration="1.00" routeLength="1.00" timeLoss="0.28" maxSpeed="1.39"/>
        <ride waitingTime="274.00" vehicle="bus_22:0.3" depart="2119.00" arrival="3200.00" arrivalPos="24.56" duration="1081.00" routeLength="3569.06" timeLoss="77.54"/>
    </personinfo>
    <personinfo id="410459897.22.1581" depart="1581.00" type="DEFAULT_PEDTYPE">
        <walk depart="1581.00" departPos="23.17" arrival="1582.00" arrivalPos="24.17" duration="1.00" routeLength="1.00" timeLoss="0.28" maxSpeed="1.39"/>
        <ride waitingTime="508.00" vehicle="bus_22:0.3" depart="2090.00" arrival="3288.00" arrivalPos="176.33" duration="1198.00" routeLength="3976.14" timeLoss="92.27"/>
    </personinfo>
    <personinfo id="410486991.43.2074" depart="2074.00" type="DEFAULT_PEDTYPE">
        <walk depart="2074.00" departPos="194.33" arrival="2075.00" arrivalPos="195.33" duration="1.00" routeLength="1.00" timeLoss="0.28" maxSpeed="1.39"/>
        <ride waitingTime="457.00" vehicle="bus_43:0.1" depart="2532.00" arrival="3344.00" arrivalPos="33.16" duration="812.00" routeLength="2309.28" timeLoss="63.81"/>
    </personinfo>
    <personinfo id="410459901.22.2609" depart="2609.00" type="DEFAULT_PEDTYPE">
        <walk depart="2609.00" departPos="553.15" arrival="3055.00" arrivalPos="0.00" duration="446.00" routeLength="553.15" timeLoss="47.73" maxSpeed="1.39"/>
        <ride waitingTime="84.00" vehicle="bus_22:0.5" depart="3139.00" arrival="3367.00" arrivalPos="30.21" duration="228.00" routeLength="669.52" timeLoss="18.73"/>
    </personinfo>
    <personinfo id="410459897.22.2886" depart="2886.00" type="DEFAULT_PEDTYPE">
        <walk depart="2886.00" departPos="23.17" arrival="2887.00" arrivalPos="24.17" duration="1.00" routeLength="1.00" timeLoss="0.28" maxSpeed="1.39"/>
        <ride waitingTime="453.00" vehicle="bus_22:0.5" depart="3340.00" arrival="3368.00" arrivalPos="30.21" duration="28.00" routeLength="91.58" timeLoss="4.68"/>
    </personinfo>
    <personinfo id="410459897.22.3035" depart="3035.00" type="DEFAULT_PEDTYPE">
        <walk depart="3035.00" departPos="23.17" arrival="3036.00" arrivalPos="24.17" duration="1.00" routeLength="1.00" timeLoss="0.28" maxSpeed="1.39"/>
        <ride waitingTime="304.00" vehicle="bus_22:0.5" depart="3340.00" arrival="3368.00" arrivalPos="30.21" duration="28.00" routeLength="91.58" timeLoss="4.68"/>
    </personinfo>
    <personinfo id="410462291.43.971" depart="971.00" type="DEFAULT_PEDTYPE">
        <walk depart="971.00" departPos="415.85" arrival="1303.00" arrivalPos="0.00" duration="332.00" routeLength="415.85" timeLoss="32.59" maxSpeed="1.39"/>
        <ride waitingTime="294.00" vehicle="bus_43:0.0" depart="1597.00" arrival="3375.00" arrivalPos="83.09" duration="1778.00" routeLength="5480.60" timeLoss="185.39"/>
    </personinfo>
    <personinfo id="410486966.43.1822" depart="1822.00" type="DEFAULT_PEDTYPE">
        <walk depart="1822.00" departPos="57.30" arrival="1823.00" arrivalPos="58.30" duration="1.00" routeLength="1.00" timeLoss="0.28" maxSpeed="1.39"/>
        <ride waitingTime="502.00" vehicle="bus_43:0.0" depart="2325.00" arrival="3375.00" arrivalPos="83.09" duration="1050.00" routeLength="2999.17" timeLoss="121.56"/>
    </personinfo>
    <personinfo id="410471030.22.2841" depart="2841.00" type="DEFAULT_PEDTYPE">
        <walk depart="2841.00" departPos="18.18" arrival="2842.00" arrivalPos="19.18" duration="1.00" routeLength="1.00" timeLoss="0.28" maxSpeed="1.39"/>
        <ride waitingTime="168.00" vehicle="bus_22:0.1" depart="3010.00" arrival="3399.00" arrivalPos="138.88" duration="389.00" routeLength="1465.73" timeLoss="31.52"/>
    </personinfo>
    <personinfo id="410486991.43.2072" depart="2072.00" type="DEFAULT_PEDTYPE">
        <walk depart="2072.00" departPos="194.33" arrival="2073.00" arrivalPos="195.33" duration="1.00" routeLength="1.00" timeLoss="0.28" maxSpeed="1.39"/>
        <ride waitingTime="459.00" vehicle="bus_43:0.1" depart="2532.00" arrival="3445.00" arrivalPos="95.98" duration="913.00" routeLength="2674.11" timeLoss="74.83"/>
    </personinfo>
    <personinfo id="410486991.43.2224" depart="2224.00" type="DEFAULT_PEDTYPE">
        <walk depart="2224.00" departPos="194.33" arrival="2225.00" arrivalPos="195.33" duration="1.00" routeLength="1.00" timeLoss="0.28" maxSpeed="1.39"/>
        <ride waitingTime="307.00" vehicle="bus_43:0.1" depart="2532.00" arrival="3445.00" arrivalPos="95.98" duration="913.00" routeLength="2674.09" timeLoss="74.83"/>
    </personinfo>
    <personinfo id="410482520.22.151" depart="151.00" type="DEFAULT_PEDTYPE">
        <walk depart="151.00" departPos="2.85" arrival="152.00" arrivalPos="3.85" duration="1.00" routeLength="1.00" timeLoss="0.28" maxSpeed="1.39"/>
        <ride waitingTime="1495.00" vehicle="bus_22:0.0" depart="1647.00" arrival="3448.00" arrivalPos="39.39" duration="1801.00" routeLength="5230.76" timeLoss="134.31"/>
    </personinfo>
    <personinfo id="1855320978.43.834" depart="834.00" type="DEFAULT_PEDTYPE">
        <walk depart="834.00" departPos="29.59" arrival="835.00" arrivalPos="30.59" duration="1.00" routeLength="1.00" timeLoss="0.28" maxSpeed="1.39"/>
        <ride waitingTime="1432.00" vehicle="bus_43:0.0" depart="2267.00" arrival="3491.00" arrivalPos="159.79" duration="1224.00" routeLength="3277.82" timeLoss="134.60"/>
    </personinfo>
    <personinfo id="410459897.22.950" depart="950.00" type="DEFAULT_PEDTYPE">
        <walk depart="950.00" departPos="23.17" arrival="951.00" arrivalPos="24.17" duration="1.00" routeLength="1.00" timeLoss="0.28" maxSpeed="1.39"/>
        <ride waitingTime="73.00" vehicle="bus_22:0.1" depart="1024.00" arrival="3517.00" arrivalPos="34.63" duration="2493.00" routeLength="9061.43" timeLoss="203.95"/>
    </personinfo>
    <personinfo id="410459904.22.2196" depart="2196.00" type="DEFAULT_PEDTYPE">
        <walk depart="2196.00" departPos="19.22" arrival="2197.00" arrivalPos="20.22" duration="1.00" routeLength="1.00" timeLoss="0.28" maxSpeed="1.39"/>
        <ride waitingTime="703.00" vehicle="bus_22:0.4" depart="2900.00" arrival="3519.00" arrivalPos="19.01" duration="619.00" routeLength="1985.29" timeLoss="48.83"/>
    </personinfo>
    <personinfo id="410464248.22.3275" depart="3275.00" type="DEFAULT_PEDTYPE">
        <walk depart="3275.00" departPos="23.64" arrival="3276.00" arrivalPos="24.64" duration="1.00" routeLength="1.00" timeLoss="0.28" maxSpeed="1.39"/>
        <ride waitingTime="67.00" vehicle="bus_22:0.0" depart="3343.00" arrival="3593.00" arrivalPos="32.68" duration="250.00" routeLength="785.72" timeLoss="20.40"/>
    </personinfo>
    <personinfo id="410482520.22.3206" depart="3206.00" type="DEFAULT_PEDTYPE">
        <walk depart="3206.00" departPos="2.85" arrival="3207.00" arrivalPos="3.85" duration="1.00" routeLength="1.00" timeLoss="0.28" maxSpeed="1.39"/>
        <ride waitingTime="242.00" vehicle="bus_22:0.3" depart="3449.00" arrival="3599.00" arrivalPos="31.76" duration="150.00" routeLength="560.46" timeLoss="13.31"/>
    </personinfo>
    <personinfo id="410482520.22.2804" depart="2804.00" type="DEFAULT_PEDTYPE">
        <walk depart="2804.00" departPos="2.85" arrival="2805.00" arrivalPos="3.85" duration="1.00" routeLength="1.00" timeLoss="0.28" maxSpeed="1.39"/>
        <ride waitingTime="45.00" vehicle="bus_22:0.2" depart="2850.00" arrival="3637.00" arrivalPos="29.17" duration="787.00" routeLength="2937.39" timeLoss="67.60"/>
    </personinfo>
    <personinfo id="410474760.43.267" depart="267.00" type="DEFAULT_PEDTYPE">
        <walk depart="267.00" departPos="38.27" arrival="268.00" arrivalPos="39.27" duration="1.00" routeLength="1.00" timeLoss="0.28" maxSpeed="1.39"/>
        <ride waitingTime="358.00" vehicle="bus_43:0.0" depart="626.00" arrival="3645.00" arrivalPos="98.67" duration="3019.00" routeLength="9444.61" timeLoss="278.60"/>
    </personinfo>
    <personinfo id="410486991.43.3101.0" depart="3101.00" type="DEFAULT_PEDTYPE">
        <walk depart="3101.00" departPos="194.33" arrival="3102.00" arrivalPos="195.33" duration="1.00" routeLength="1.00" timeLoss="0.28" maxSpeed="1.39"/>
        <ride waitingTime="489.00" vehicle="bus_43:0.3" depart="3591.00" arrival="3716.00" arrivalPos="60.85" duration="125.00" routeLength="458.95" timeLoss="13.08"/>
    </personinfo>
    <personinfo id="4430976208.43.1753" depart="1753.00" type="DEFAULT_PEDTYPE">
        <walk depart="1753.00" departPos="18.61" arrival="1754.00" arrivalPos="19.61" duration="1.00" routeLength="1.00" timeLoss="0.28" maxSpeed="1.39"/>
        <ride waitingTime="329.00" vehicle="bus_43:0.0" depart="2083.00" arrival="3719.00" arrivalPos="102.55" duration="1636.00" routeLength="4796.74" timeLoss="171.16"/>
    </personinfo>
    <personinfo id="410465917.22.1888" depart="1888.00" type="DEFAULT_PEDTYPE">
        <walk depart="1888.00" departPos="21.70" arrival="1889.00" arrivalPos="22.70" duration="1.00" routeLength="1.00" timeLoss="0.28" maxSpeed="1.39"/>
        <ride waitingTime="1705.00" vehicle="bus_22:0.0" depart="3594.00" arrival="3727.00" arrivalPos="10.70" duration="133.00" routeLength="479.11" timeLoss="12.16"/>
    </personinfo>
    <personinfo id="410465917.22.2274" depart="2274.00" type="DEFAULT_PEDTYPE">
        <walk depart="2274.00" departPos="21.70" arrival="2275.00" arrivalPos="22.70" duration="1.00" routeLength="1.00" timeLoss="0.28" maxSpeed="1.39"/>
        <ride waitingTime="1319.00" vehicle="bus_22:0.0" depart="3594.00" arrival="3727.00" arrivalPos="10.70" duration="133.00" routeLength="479.08" timeLoss="12.16"/>
    </personinfo>
    <personinfo id="410465917.22.2346" depart="2346.00" type="DEFAULT_PEDTYPE">
        <walk depart="2346.00" departPos="21.70" arrival="2347.00" arrivalPos="22.70" duration="1.00" routeLength="1.00" timeLoss="0.28" maxSpeed="1.39"/>
        <ride waitingTime="1247.00" vehicle="bus_22:0.0" depart="3594.00" arrival="3728.00" arrivalPos="10.70" duration="134.00" routeLength="479.08" timeLoss="12.16"/>
    </personinfo>
    <personinfo id="410465917.22.2977" depart="2977.00" type="DEFAULT_PEDTYPE">
        <walk depart="2977.00" departPos="21.70" arrival="2978.00" arrivalPos="22.70" duration="1.00" routeLength="1.00" timeLoss="0.28" maxSpeed="1.39"/>
        <ride waitingTime="616.00" vehicle="bus_22:0.0" depart="3594.00" arrival="3728.00" arrivalPos="10.70" duration="134.00" routeLength="479.08" timeLoss="12.16"/>
    </personinfo>
    <personinfo id="410465917.22.3502" depart="3502.00" type="DEFAULT_PEDTYPE">
        <walk depart="3502.00" departPos="21.70" arrival="3503.00" arrivalPos="22.70" duration="1.00" routeLength="1.00" timeLoss="0.28" maxSpeed="1.39"/>
        <ride waitingTime="91.00" vehicle="bus_22:0.0" depart="3594.00" arrival="3729.00" arrivalPos="10.70" duration="135.00" routeLength="479.08" timeLoss="12.16"/>
    </personinfo>
    <personinfo id="410462101.22.2201" depart="2201.00" type="DEFAULT_PEDTYPE">
        <walk depart="2201.00" departPos="11.46" arrival="2202.00" arrivalPos="12.46" duration="1.00" routeLength="1.00" timeLoss="0.28" maxSpeed="1.39"/>
        <ride waitingTime="710.00" vehicle="bus_22:0.3" depart="2912.00" arrival="3819.00" arrivalPos="159.79" duration="907.00" routeLength="2915.22" timeLoss="76.04"/>
    </personinfo>
    <personinfo id="410483103.22.1644" depart="1644.00" type="DEFAULT_PEDTYPE">
        <walk depart="1644.00" departPos="165.36" arrival="1645.00" arrivalPos="166.36" duration="1.00" routeLength="1.00" timeLoss="0.28" maxSpeed="1.39"/>
        <ride waitingTime="475.00" vehicle="bus_22:0.1" depart="2120.00" arrival="3855.00" arrivalPos="10.72" duration="1735.00" routeLength="6350.05" timeLoss="145.25"/>
    </personinfo>
    <personinfo id="410465917.22.401" depart="401.00" type="DEFAULT_PEDTYPE">
        <walk depart="401.00" departPos="21.70" arrival="402.00" arrivalPos="22.70" duration="1.00" routeLength="1.00" timeLoss="0.28" maxSpeed="1.39"/>
        <ride waitingTime="3192.00" vehicle="bus_22:0.0" depart="3594.00" arrival="3942.00" arrivalPos="10.27" duration="348.00" routeLength="936.87" timeLoss="24.52"/>
    </personinfo>
    <personinfo id="410465917.22.2604" depart="2604.00" type="DEFAULT_PEDTYPE">
        <walk depart="2604.00" departPos="21.70" arrival="2605.00" arrivalPos="22.70" duration="1.00" routeLength="1.00" timeLoss="0.28" maxSpeed="1.39"/>
        <ride waitingTime="989.00" vehicle="bus_22:0.0" depart="3594.00" arrival="3943.00" arrivalPos="10.27" duration="349.00" routeLength="936.83" timeLoss="24.52"/>
    </personinfo>
    <personinfo id="410465917.22.3126" depart="3126.00" type="DEFAULT_PEDTYPE">
        <walk depart="3126.00" departPos="21.70" arrival="3127.00" arrivalPos="22.70" duration="1.00" routeLength="1.00" timeLoss="0.28" maxSpeed="1.39"/>
        <ride waitingTime="467.00" vehicle="bus_22:0.0" depart="3594.00" arrival="3943.00" arrivalPos="10.27" duration="349.00" routeLength="936.83" timeLoss="24.52"/>
    </personinfo>
    <personinfo id="410465915.22.407" depart="407.00" type="DEFAULT_PEDTYPE">
        <walk depart="407.00" departPos="138.08" arrival="518.00" arrivalPos="0.00" duration="111.00" routeLength="138.08" timeLoss="11.58" maxSpeed="1.39"/>
        <ride waitingTime="3298.00" vehicle="bus_22:0.0" depart="3816.00" arrival="3944.00" arrivalPos="10.27" duration="128.00" routeLength="457.79" timeLoss="12.36"/>
    </personinfo>