<?xml version="1.0" encoding="UTF-8"?>

<!-- generated on 2024-03-26 18:04:22 by Eclipse SUMO GUI Version 1.14.1
<configuration xmlns:xsi="http://www.w3.org/2001/XMLSchema-instance" xsi:noNamespaceSchemaLocation="http://sumo.dlr.de/xsd/sumoConfiguration.xsd">

    <input>
        <net-file value="singapore/singapore.net.xml"/>
        <route-files value="singapore/busFlows.rou.xml"/>
        <additional-files value="singapore/busstops.xml"/>
    </input>

    <output>
        <tripinfo-output value="tripinfo.xml"/>
    </output>

    <processing>
        <no-internal-links value="true"/>
    </processing>

    <traci_server>
        <remote-port value="54144"/>
    </traci_server>

</configuration>
-->

<tripinfos xmlns:xsi="http://www.w3.org/2001/XMLSchema-instance" xsi:noNamespaceSchemaLocation="http://sumo.dlr.de/xsd/tripinfo_file.xsd">
    <personinfo id="410459651.22.971" depart="971.00" type="DEFAULT_PEDTYPE">
        <walk depart="971.00" departPos="15.18" arrival="972.00" arrivalPos="16.18" duration="1.00" routeLength="1.00" timeLoss="0.28" maxSpeed="1.39"/>
        <ride waitingTime="288.00" vehicle="bus_22:0.1" depart="1260.00" arrival="1491.00" arrivalPos="24.01" duration="231.00" routeLength="829.02" timeLoss="18.46"/>
    </personinfo>
    <personinfo id="410459897.22.222" depart="222.00" type="DEFAULT_PEDTYPE">
        <walk depart="222.00" departPos="23.17" arrival="223.00" arrivalPos="24.17" duration="1.00" routeLength="1.00" timeLoss="0.28" maxSpeed="1.39"/>
        <ride waitingTime="83.00" vehicle="bus_22:0.0" depart="306.00" arrival="1829.00" arrivalPos="88.10" duration="1523.00" routeLength="5416.34" timeLoss="130.22"/>
    </personinfo>
    <personinfo id="410462103.22.73" depart="73.00" type="DEFAULT_PEDTYPE">
        <walk depart="73.00" departPos="11.46" arrival="74.00" arrivalPos="12.46" duration="1.00" routeLength="1.00" timeLoss="0.28" maxSpeed="1.39"/>
        <ride waitingTime="953.00" vehicle="bus_22:0.0" depart="1027.00" arrival="2087.00" arrivalPos="107.55" duration="1060.00" routeLength="3750.88" timeLoss="95.26"/>
    </personinfo>
    <personinfo id="410486991.43.1721" depart="1721.00" type="DEFAULT_PEDTYPE">
        <walk depart="1721.00" departPos="194.33" arrival="1722.00" arrivalPos="195.33" duration="1.00" routeLength="1.00" timeLoss="0.28" maxSpeed="1.39"/>
        <ride waitingTime="47.00" vehicle="bus_43:0.0" depart="1769.00" arrival="2091.00" arrivalPos="16.11" duration="322.00" routeLength="1115.15" timeLoss="30.10"/>
    </personinfo>
    <personinfo id="4430976208.43.578" depart="578.00" type="DEFAULT_PEDTYPE">
        <walk depart="578.00" departPos="18.61" arrival="579.00" arrivalPos="19.61" duration="1.00" routeLength="1.00" timeLoss="0.28" maxSpeed="1.39"/>
        <ride waitingTime="1441.00" vehicle="bus_43:0.0" depart="2020.00" arrival="2091.00" arrivalPos="16.11" duration="71.00" routeLength="250.61" timeLoss="6.76"/>
    </personinfo>
    <personinfo id="410482570.22.2079" depart="2079.00" type="DEFAULT_PEDTYPE">
        <walk depart="2079.00" departPos="91.56" arrival="2085.00" arrivalPos="92.56" duration="6.00" routeLength="1.00" timeLoss="5.28" maxSpeed="1.39"/>
        <ride waitingTime="3.00" vehicle="bus_22:0.0" depart="2088.00" arrival="2134.00" arrivalPos="263.30" duration="46.00" routeLength="155.78" timeLoss="6.07"/>
    </personinfo>
    <personinfo id="410486955.43.1757" depart="1757.00" type="DEFAULT_PEDTYPE">
        <walk depart="1757.00" departPos="49.88" arrival="1758.00" arrivalPos="50.88" duration="1.00" routeLength="1.00" timeLoss="0.28" maxSpeed="1.39"/>
        <ride waitingTime="146.00" vehicle="bus_43:0.0" depart="1904.00" arrival="2215.00" arrivalPos="45.58" duration="311.00" routeLength="1090.61" timeLoss="28.39"/>
    </personinfo>
    <personinfo id="410459904.22.670" depart="670.00" type="DEFAULT_PEDTYPE">
        <walk depart="670.00" departPos="19.22" arrival="671.00" arrivalPos="20.22" duration="1.00" routeLength="1.00" timeLoss="0.28" maxSpeed="1.39"/>
        <ride waitingTime="265.00" vehicle="bus_22:0.1" depart="936.00" arrival="2253.00" arrivalPos="36.75" duration="1317.00" routeLength="4689.47" timeLoss="110.67"/>
    </personinfo>
    <personinfo id="410462291.43.229" depart="229.00" type="DEFAULT_PEDTYPE">
        <walk depart="229.00" departPos="415.85" arrival="562.00" arrivalPos="0.00" duration="333.00" routeLength="415.85" timeLoss="33.59" maxSpeed="1.39"/>
        <ride waitingTime="997.00" vehicle="bus_43:0.0" depart="1559.00" arrival="2277.00" arrivalPos="73.29" duration="718.00" routeLength="2484.93" timeLoss="65.89"/>
    </personinfo>
    <personinfo id="410486991.43.987" depart="987.00" type="DEFAULT_PEDTYPE">
        <walk depart="987.00" departPos="194.33" arrival="988.00" arrivalPos="195.33" duration="1.00" routeLength="1.00" timeLoss="0.28" maxSpeed="1.39"/>
        <ride waitingTime="781.00" vehicle="bus_43:0.0" depart="1769.00" arrival="2277.00" arrivalPos="73.29" duration="508.00" routeLength="1749.69" timeLoss="48.41"/>
    </personinfo>
    <personinfo id="410486955.43.1825" depart="1825.00" type="DEFAULT_PEDTYPE">
        <walk depart="1825.00" departPos="49.88" arrival="1826.00" arrivalPos="50.88" duration="1.00" routeLength="1.00" timeLoss="0.28" maxSpeed="1.39"/>
        <ride waitingTime="78.00" vehicle="bus_43:0.0" depart="1904.00" arrival="2278.00" arrivalPos="73.29" duration="374.00" routeLength="1292.56" timeLoss="35.61"/>
    </personinfo>
    <personinfo id="410462211.43.1498" depart="1498.00" type="DEFAULT_PEDTYPE">
        <walk depart="1498.00" departPos="18.63" arrival="1499.00" arrivalPos="19.63" duration="1.00" routeLength="1.00" timeLoss="0.28" maxSpeed="1.39"/>
        <ride waitingTime="578.00" vehicle="bus_43:0.1" depart="2077.00" arrival="2373.00" arrivalPos="210.33" duration="296.00" routeLength="1053.22" timeLoss="25.95"/>
    </personinfo>
    <personinfo id="410486955.43.477" depart="477.00" type="DEFAULT_PEDTYPE">
        <walk depart="477.00" departPos="49.88" arrival="478.00" arrivalPos="50.88" duration="1.00" routeLength="1.00" timeLoss="0.28" maxSpeed="1.39"/>
        <ride waitingTime="1426.00" vehicle="bus_43:0.0" depart="1904.00" arrival="2437.00" arrivalPos="38.16" duration="533.00" routeLength="1850.38" timeLoss="50.60"/>
    </personinfo>
    <personinfo id="1849631269.43.1702" depart="1702.00" type="DEFAULT_PEDTYPE">
        <walk depart="1702.00" departPos="160.44" arrival="1831.00" arrivalPos="0.00" duration="129.00" routeLength="160.44" timeLoss="13.48" maxSpeed="1.39"/>
        <ride waitingTime="248.00" vehicle="bus_43:0.2" depart="2079.00" arrival="2532.00" arrivalPos="66.18" duration="453.00" routeLength="1604.07" timeLoss="39.73"/>
    </personinfo>
    <personinfo id="410462291.43.910" depart="910.00" type="DEFAULT_PEDTYPE">
        <walk depart="910.00" departPos="415.85" arrival="1243.00" arrivalPos="0.00" duration="333.00" routeLength="415.85" timeLoss="33.59" maxSpeed="1.39"/>
        <ride waitingTime="316.00" vehicle="bus_43:0.0" depart="1559.00" arrival="2542.00" arrivalPos="100.98" duration="983.00" routeLength="3407.52" timeLoss="91.35"/>
    </personinfo>
    <personinfo id="1849631273.43.1509" depart="1509.00" type="DEFAULT_PEDTYPE">
        <walk depart="1509.00" departPos="413.46" arrival="1847.00" arrivalPos="0.00" duration="338.00" routeLength="413.46" timeLoss="40.31" maxSpeed="1.39"/>
        <ride waitingTime="517.00" vehicle="bus_43:0.2" depart="2364.00" arrival="2567.00" arrivalPos="26.47" duration="203.00" routeLength="701.43" timeLoss="20.18"/>
    </personinfo>
    <personinfo id="410462103.22.292" depart="292.00" type="DEFAULT_PEDTYPE">
        <walk depart="292.00" departPos="11.46" arrival="293.00" arrivalPos="12.46" duration="1.00" routeLength="1.00" timeLoss="0.28" maxSpeed="1.39"/>
        <ride waitingTime="734.00" vehicle="bus_22:0.0" depart="1027.00" arrival="2613.00" arrivalPos="328.21" duration="1586.00" routeLength="5587.56" timeLoss="146.34"/>
    </personinfo>
    <personinfo id="410482572.43.1591" depart="1591.00" type="DEFAULT_PEDTYPE">
        <walk depart="1591.00" departPos="20.76" arrival="1592.00" arrivalPos="21.76" duration="1.00" routeLength="1.00" timeLoss="0.28" maxSpeed="1.39"/>
        <ride waitingTime="663.00" vehicle="bus_22:0.1" depart="2255.00" arrival="2618.00" arrivalPos="103.66" duration="363.00" routeLength="1283.19" timeLoss="33.02"/>
    </personinfo>
    <personinfo id="410462293.43.1431" depart="1431.00" type="DEFAULT_PEDTYPE">
        <walk depart="1431.00" departPos="10.48" arrival="1432.00" arrivalPos="11.48" duration="1.00" routeLength="1.00" timeLoss="0.28" maxSpeed="1.39"/>
        <ride waitingTime="523.00" vehicle="bus_43:0.1" depart="1955.00" arrival="2690.00" arrivalPos="16.11" duration="735.00" routeLength="2593.60" timeLoss="66.00"/>
    </personinfo>
    <personinfo id="410462293.43.2361" depart="2361.00" type="DEFAULT_PEDTYPE">
        <walk depart="2361.00" departPos="10.48" arrival="2362.00" arrivalPos="11.48" duration="1.00" routeLength="1.00" timeLoss="0.28" maxSpeed="1.39"/>
        <ride waitingTime="206.00" vehicle="bus_43:0.2" depart="2568.00" arrival="2690.00" arrivalPos="34.62" duration="122.00" routeLength="425.24" timeLoss="11.97"/>
    </personinfo>
    <personinfo id="410462293.43.2374" depart="2374.00" type="DEFAULT_PEDTYPE">
        <walk depart="2374.00" departPos="10.48" arrival="2375.00" arrivalPos="11.48" duration="1.00" routeLength="1.00" timeLoss="0.28" maxSpeed="1.39"/>
        <ride waitingTime="193.00" vehicle="bus_43:0.2" depart="2568.00" arrival="2691.00" arrivalPos="34.62" duration="123.00" routeLength="425.22" timeLoss="11.97"/>
    </personinfo>
    <personinfo id="410486991.43.1182" depart="1182.00" type="DEFAULT_PEDTYPE">
        <walk depart="1182.00" departPos="194.33" arrival="1183.00" arrivalPos="195.33" duration="1.00" routeLength="1.00" timeLoss="0.28" maxSpeed="1.39"/>
        <ride waitingTime="586.00" vehicle="bus_43:0.0" depart="1769.00" arrival="2728.00" arrivalPos="181.36" duration="959.00" routeLength="3308.11" timeLoss="93.84"/>
    </personinfo>
    <personinfo id="410486955.43.435" depart="435.00" type="DEFAULT_PEDTYPE">
        <walk depart="435.00" departPos="49.88" arrival="436.00" arrivalPos="50.88" duration="1.00" routeLength="1.00" timeLoss="0.28" maxSpeed="1.39"/>
        <ride waitingTime="1468.00" vehicle="bus_43:0.0" depart="1904.00" arrival="2728.00" arrivalPos="181.36" duration="824.00" routeLength="2851.04" timeLoss="81.04"/>
    </personinfo>
    <personinfo id="410462101.22.305" depart="305.00" type="DEFAULT_PEDTYPE">
        <walk depart="305.00" departPos="11.46" arrival="306.00" arrivalPos="12.46" duration="1.00" routeLength="1.00" timeLoss="0.28" maxSpeed="1.39"/>
        <ride waitingTime="721.00" vehicle="bus_22:0.0" depart="1027.00" arrival="2780.00" arrivalPos="42.16" duration="1753.00" routeLength="6171.33" timeLoss="161.68"/>
    </personinfo>
    <personinfo id="410462211.43.2238" depart="2238.00" type="DEFAULT_PEDTYPE">
        <walk depart="2238.00" departPos="18.63" arrival="2239.00" arrivalPos="19.63" duration="1.00" routeLength="1.00" timeLoss="0.28" maxSpeed="1.39"/>
        <ride waitingTime="453.00" vehicle="bus_43:0.2" depart="2692.00" arrival="2784.00" arrivalPos="11.16" duration="92.00" routeLength="318.00" timeLoss="10.48"/>
    </personinfo>
    <personinfo id="410486969.43.2197" depart="2197.00" type="DEFAULT_PEDTYPE">
        <walk depart="2197.00" departPos="0.12" arrival="2198.00" arrivalPos="1.12" duration="1.00" routeLength="1.00" timeLoss="0.28" maxSpeed="1.39"/>
        <ride waitingTime="494.00" vehicle="bus_43:0.1" depart="2692.00" arrival="2815.00" arrivalPos="45.59" duration="123.00" routeLength="432.59" timeLoss="12.10"/>
    </personinfo>
    <personinfo id="410482570.22.2465" depart="2465.00" type="DEFAULT_PEDTYPE">
        <walk depart="2465.00" departPos="91.56" arrival="2466.00" arrivalPos="92.56" duration="1.00" routeLength="1.00" timeLoss="0.28" maxSpeed="1.39"/>
        <ride waitingTime="229.00" vehicle="bus_22:0.1" depart="2695.00" arrival="2830.00" arrivalPos="12.11" duration="135.00" routeLength="474.12" timeLoss="13.44"/>
    </personinfo>
    <personinfo id="410462103.22.1704" depart="1704.00" type="DEFAULT_PEDTYPE">
        <walk depart="1704.00" departPos="11.46" arrival="1705.00" arrivalPos="12.46" duration="1.00" routeLength="1.00" timeLoss="0.28" maxSpeed="1.39"/>
        <ride waitingTime="523.00" vehicle="bus_22:0.2" depart="2228.00" arrival="2851.00" arrivalPos="36.75" duration="623.00" routeLength="2203.12" timeLoss="56.12"/>
    </personinfo>
    <personinfo id="410462266.43.1658" depart="1658.00" type="DEFAULT_PEDTYPE">
        <walk depart="1658.00" departPos="50.19" arrival="1659.00" arrivalPos="51.19" duration="1.00" routeLength="1.00" timeLoss="0.28" maxSpeed="1.39"/>
        <ride waitingTime="260.00" vehicle="bus_43:0.1" depart="1919.00" arrival="2875.00" arrivalPos="73.28" duration="956.00" routeLength="3336.10" timeLoss="90.64"/>
    </personinfo>
    <personinfo id="410462293.43.1541" depart="1541.00" type="DEFAULT_PEDTYPE">
        <walk depart="1541.00" departPos="10.48" arrival="1542.00" arrivalPos="11.48" duration="1.00" routeLength="1.00" timeLoss="0.28" maxSpeed="1.39"/>
        <ride waitingTime="413.00" vehicle="bus_43:0.1" depart="1955.00" arrival="2876.00" arrivalPos="73.28" duration="921.00" routeLength="3228.13" timeLoss="85.33"/>
    </personinfo>
    <personinfo id="1531005322.22.1984" depart="1984.00" type="DEFAULT_PEDTYPE">
        <walk depart="1984.00" departPos="12.13" arrival="1985.00" arrivalPos="13.13" duration="1.00" routeLength="1.00" timeLoss="0.28" maxSpeed="1.39"/>
        <ride waitingTime="552.00" vehicle="bus_22:0.2" depart="2537.00" arrival="2909.00" arrivalPos="19.17" duration="372.00" routeLength="1301.80" timeLoss="36.23"/>
    </personinfo>
    <personinfo id="410482572.43.1831" depart="1831.00" type="DEFAULT_PEDTYPE">
        <walk depart="1831.00" departPos="20.76" arrival="1832.00" arrivalPos="21.76" duration="1.00" routeLength="1.00" timeLoss="0.28" maxSpeed="1.39"/>
        <ride waitingTime="423.00" vehicle="bus_22:0.1" depart="2255.00" arrival="2932.00" arrivalPos="34.17" duration="677.00" routeLength="2377.02" timeLoss="63.56"/>
    </personinfo>
    <personinfo id="410486991.43.760" depart="760.00" type="DEFAULT_PEDTYPE">
        <walk depart="760.00" departPos="194.33" arrival="761.00" arrivalPos="195.33" duration="1.00" routeLength="1.00" timeLoss="0.28" maxSpeed="1.39"/>
        <ride waitingTime="1008.00" vehicle="bus_43:0.0" depart="1769.00" arrival="2962.00" arrivalPos="36.75" duration="1193.00" routeLength="4113.45" timeLoss="118.36"/>
    </personinfo>
    <personinfo id="410480716.22.1993" depart="1993.00" type="DEFAULT_PEDTYPE">
        <walk depart="1993.00" departPos="9.98" arrival="1994.00" arrivalPos="10.98" duration="1.00" routeLength="1.00" timeLoss="0.28" maxSpeed="1.39"/>
        <ride waitingTime="480.00" vehicle="bus_22:0.0" depart="2474.00" arrival="2985.00" arrivalPos="44.39" duration="511.00" routeLength="1762.23" timeLoss="54.21"/>
    </personinfo>
    <personinfo id="410480722.22.2154" depart="2154.00" type="DEFAULT_PEDTYPE">
        <walk depart="2154.00" departPos="184.20" arrival="2155.00" arrivalPos="185.20" duration="1.00" routeLength="1.00" timeLoss="0.28" maxSpeed="1.39"/>
        <ride waitingTime="419.00" vehicle="bus_22:0.0" depart="2574.00" arrival="2985.00" arrivalPos="44.39" duration="411.00" routeLength="1413.85" timeLoss="44.53"/>
    </personinfo>
    <personinfo id="410480721.22.2100" depart="2100.00" type="DEFAULT_PEDTYPE">
        <walk depart="2100.00" departPos="312.24" arrival="2101.00" arrivalPos="313.24" duration="1.00" routeLength="1.00" timeLoss="0.28" maxSpeed="1.39"/>
        <ride waitingTime="514.00" vehicle="bus_22:0.0" depart="2615.00" arrival="2985.00" arrivalPos="44.39" duration="370.00" routeLength="1285.86" timeLoss="38.35"/>
    </personinfo>
    <personinfo id="410464248.22.1530" depart="1530.00" type="DEFAULT_PEDTYPE">
        <walk depart="1530.00" departPos="23.64" arrival="1531.00" arrivalPos="24.64" duration="1.00" routeLength="1.00" timeLoss="0.28" maxSpeed="1.39"/>
        <ride waitingTime="1342.00" vehicle="bus_22:0.0" depart="2873.00" arrival="2986.00" arrivalPos="44.39" duration="113.00" routeLength="390.40" timeLoss="11.92"/>
    </personinfo>
    <personinfo id="410462293.43.1623" depart="1623.00" type="DEFAULT_PEDTYPE">
        <walk depart="1623.00" departPos="10.48" arrival="1624.00" arrivalPos="11.48" duration="1.00" routeLength="1.00" timeLoss="0.28" maxSpeed="1.39"/>
        <ride waitingTime="331.00" vehicle="bus_43:0.1" depart="1955.00" arrival="3033.00" arrivalPos="38.15" duration="1078.00" routeLength="3785.86" timeLoss="98.33"/>
    </personinfo>
    <personinfo id="410486991.43.1951" depart="1951.00" type="DEFAULT_PEDTYPE">
        <walk depart="1951.00" departPos="194.33" arrival="1952.00" arrivalPos="195.33" duration="1.00" routeLength="1.00" timeLoss="0.28" maxSpeed="1.39"/>
        <ride waitingTime="423.00" vehicle="bus_43:0.1" depart="2375.00" arrival="3033.00" arrivalPos="38.15" duration="658.00" routeLength="2307.46" timeLoss="60.40"/>
    </personinfo>
    <personinfo id="1531005322.22.2447" depart="2447.00" type="DEFAULT_PEDTYPE">
        <walk depart="2447.00" departPos="12.13" arrival="2448.00" arrivalPos="13.13" duration="1.00" routeLength="1.00" timeLoss="0.28" maxSpeed="1.39"/>
        <ride waitingTime="89.00" vehicle="bus_22:0.2" depart="2537.00" arrival="3035.00" arrivalPos="88.09" duration="498.00" routeLength="1741.28" timeLoss="48.55"/>
    </personinfo>
    <personinfo id="410459901.22.1258" depart="1258.00" type="DEFAULT_PEDTYPE">
        <walk depart="1258.00" departPos="553.15" arrival="1707.00" arrivalPos="0.00" duration="449.00" routeLength="553.15" timeLoss="50.73" maxSpeed="1.39"/>
        <ride waitingTime="237.00" vehicle="bus_22:0.3" depart="1944.00" arrival="3057.00" arrivalPos="100.99" duration="1113.00" routeLength="3921.79" timeLoss="101.48"/>
    </personinfo>
    <personinfo id="410464248.22.466" depart="466.00" type="DEFAULT_PEDTYPE">
        <walk depart="466.00" departPos="23.64" arrival="467.00" arrivalPos="24.64" duration="1.00" routeLength="1.00" timeLoss="0.28" maxSpeed="1.39"/>
        <ride waitingTime="2406.00" vehicle="bus_22:0.0" depart="2873.00" arrival="3105.00" arrivalPos="37.68" duration="232.00" routeLength="785.70" timeLoss="22.58"/>
    </personinfo>
    <personinfo id="1849631269.43.1169" depart="1169.00" type="DEFAULT_PEDTYPE">
        <walk depart="1169.00" departPos="160.44" arrival="1298.00" arrivalPos="0.00" duration="129.00" routeLength="160.44" timeLoss="13.48" maxSpeed="1.39"/>
        <ride waitingTime="161.00" vehicle="bus_43:0.1" depart="1459.00" arrival="3140.00" arrivalPos="100.99" duration="1681.00" routeLength="5862.84" timeLoss="160.80"/>
    </personinfo>
    <personinfo id="410462293.43.1747" depart="1747.00" type="DEFAULT_PEDTYPE">
        <walk depart="1747.00" departPos="10.48" arrival="1748.00" arrivalPos="11.48" duration="1.00" routeLength="1.00" timeLoss="0.28" maxSpeed="1.39"/>
        <ride waitingTime="207.00" vehicle="bus_43:0.1" depart="1955.00" arrival="3140.00" arrivalPos="100.99" duration="1185.00" routeLength="4150.71" timeLoss="109.78"/>
    </personinfo>
    <personinfo id="410462291.43.219" depart="219.00" type="DEFAULT_PEDTYPE">
        <walk depart="219.00" departPos="415.85" arrival="551.00" arrivalPos="0.00" duration="332.00" routeLength="415.85" timeLoss="32.59" maxSpeed="1.39"/>
        <ride waitingTime="1008.00" vehicle="bus_43:0.0" depart="1559.00" arrival="3167.00" arrivalPos="164.77" duration="1608.00" routeLength="5560.78" timeLoss="156.28"/>
    </personinfo>
    <personinfo id="410483103.22.1533" depart="1533.00" type="DEFAULT_PEDTYPE">
        <walk depart="1533.00" departPos="165.36" arrival="1534.00" arrivalPos="166.36" duration="1.00" routeLength="1.00" timeLoss="0.28" maxSpeed="1.39"/>
        <ride waitingTime="492.00" vehicle="bus_22:0.1" depart="2026.00" arrival="3181.00" arrivalPos="200.19" duration="1155.00" routeLength="4061.86" timeLoss="106.58"/>
    </personinfo>
    <personinfo id="410459897.22.1418" depart="1418.00" type="DEFAULT_PEDTYPE">
        <walk depart="1418.00" departPos="23.17" arrival="1419.00" arrivalPos="24.17" duration="1.00" routeLength="1.00" timeLoss="0.28" maxSpeed="1.39"/>
        <ride waitingTime="88.00" vehicle="bus_22:0.2" depart="1507.00" arrival="3219.00" arrivalPos="103.68" duration="1712.00" routeLength="6064.14" timeLoss="150.14"/>
    </personinfo>
    <personinfo id="410462211.43.2459" depart="2459.00" type="DEFAULT_PEDTYPE">
        <walk depart="2459.00" departPos="18.63" arrival="2460.00" arrivalPos="19.63" duration="1.00" routeLength="1.00" timeLoss="0.28" maxSpeed="1.39"/>
        <ride waitingTime="232.00" vehicle="bus_43:0.2" depart="2692.00" arrival="3242.00" arrivalPos="34.58" duration="550.00" routeLength="1917.76" timeLoss="54.33"/>
    </personinfo>
    <personinfo id="410465917.22.654" depart="654.00" type="DEFAULT_PEDTYPE">
        <walk depart="654.00" departPos="21.70" arrival="655.00" arrivalPos="22.70" duration="1.00" routeLength="1.00" timeLoss="0.28" maxSpeed="1.39"/>
        <ride waitingTime="2451.00" vehicle="bus_22:0.0" depart="3106.00" arrival="3244.00" arrivalPos="11.72" duration="138.00" routeLength="475.09" timeLoss="13.19"/>
    </personinfo>
    <personinfo id="410465917.22.1419" depart="1419.00" type="DEFAULT_PEDTYPE">
        <walk depart="1419.00" departPos="21.70" arrival="1420.00" arrivalPos="22.70" duration="1.00" routeLength="1.00" timeLoss="0.28" maxSpeed="1.39"/>
        <ride waitingTime="1686.00" vehicle="bus_22:0.0" depart="3106.00" arrival="3244.00" arrivalPos="11.72" duration="138.00" routeLength="475.09" timeLoss="13.19"/>
    </personinfo>
    <personinfo id="410465917.22.1765" depart="1765.00" type="DEFAULT_PEDTYPE">
        <walk depart="1765.00" departPos="21.70" arrival="1766.00" arrivalPos="22.70" duration="1.00" routeLength="1.00" timeLoss="0.28" maxSpeed="1.39"/>
        <ride waitingTime="1340.00" vehicle="bus_22:0.0" depart="3106.00" arrival="3245.00" arrivalPos="11.72" duration="139.00" routeLength="475.09" timeLoss="13.19"/>
    </personinfo>
    <personinfo id="410465917.22.1920" depart="1920.00" type="DEFAULT_PEDTYPE">
        <walk depart="1920.00" departPos="21.70" arrival="1921.00" arrivalPos="22.70" duration="1.00" routeLength="1.00" timeLoss="0.28" maxSpeed="1.39"/>
        <ride waitingTime="1185.00" vehicle="bus_22:0.0" depart="3106.00" arrival="3245.00" arrivalPos="11.72" duration="139.00" routeLength="475.09" timeLoss="13.19"/>
    </personinfo>
    <personinfo id="410465917.22.1979" depart="1979.00" type="DEFAULT_PEDTYPE">
        <walk depart="1979.00" departPos="21.70" arrival="1980.00" arrivalPos="22.70" duration="1.00" routeLength="1.00" timeLoss="0.28" maxSpeed="1.39"/>
        <ride waitingTime="1126.00" vehicle="bus_22:0.0" depart="3106.00" arrival="3246.00" arrivalPos="11.72" duration="140.00" routeLength="475.09" timeLoss="13.19"/>
    </personinfo>
    <personinfo id="410465917.22.2643" depart="2643.00" type="DEFAULT_PEDTYPE">
        <walk depart="2643.00" departPos="21.70" arrival="2644.00" arrivalPos="22.70" duration="1.00" routeLength="1.00" timeLoss="0.28" maxSpeed="1.39"/>
        <ride waitingTime="462.00" vehicle="bus_22:0.0" depart="3106.00" arrival="3246.00" arrivalPos="11.72" duration="140.00" routeLength="475.09" timeLoss="13.19"/>
    </personinfo>
    <personinfo id="1849631273.43.1157" depart="1157.00" type="DEFAULT_PEDTYPE">
        <walk depart="1157.00" departPos="413.46" arrival="1487.00" arrivalPos="0.00" duration="330.00" routeLength="413.46" timeLoss="32.31" maxSpeed="1.39"/>
        <ride waitingTime="262.00" vehicle="bus_43:0.1" depart="1749.00" arrival="3321.00" arrivalPos="181.35" duration="1572.00" routeLength="5487.86" timeLoss="147.95"/>
    </personinfo>
    <personinfo id="410462103.22.1994" depart="1994.00" type="DEFAULT_PEDTYPE">
        <walk depart="1994.00" departPos="11.46" arrival="1995.00" arrivalPos="12.46" duration="1.00" routeLength="1.00" timeLoss="0.28" maxSpeed="1.39"/>
        <ride waitingTime="233.00" vehicle="bus_22:0.2" depart="2228.00" arrival="3341.00" arrivalPos="263.29" duration="1113.00" routeLength="3906.64" timeLoss="105.36"/>
    </personinfo>
    <personinfo id="410462103.22.1352" depart="1352.00" type="DEFAULT_PEDTYPE">
        <walk depart="1352.00" departPos="11.46" arrival="1353.00" arrivalPos="12.46" duration="1.00" routeLength="1.00" timeLoss="0.28" maxSpeed="1.39"/>
        <ride waitingTime="282.00" vehicle="bus_22:0.1" depart="1635.00" arrival="3349.00" arrivalPos="149.89" duration="1714.00" routeLength="6051.82" timeLoss="153.35"/>
    </personinfo>
    <personinfo id="410482568.22.794" depart="794.00" type="DEFAULT_PEDTYPE">
        <walk depart="794.00" departPos="3.17" arrival="795.00" arrivalPos="4.17" duration="1.00" routeLength="1.00" timeLoss="0.28" maxSpeed="1.39"/>
        <ride waitingTime="908.00" vehicle="bus_22:0.0" depart="1703.00" arrival="3379.00" arrivalPos="12.28" duration="1676.00" routeLength="5803.53" timeLoss="163.02"/>
    </personinfo>
    <personinfo id="410465917.22.239" depart="239.00" type="DEFAULT_PEDTYPE">
        <walk depart="239.00" departPos="21.70" arrival="240.00" arrivalPos="22.70" duration="1.00" routeLength="1.00" timeLoss="0.28" maxSpeed="1.39"/>
        <ride waitingTime="2866.00" vehicle="bus_22:0.0" depart="3106.00" arrival="3379.00" arrivalPos="12.28" duration="273.00" routeLength="933.89" timeLoss="26.56"/>
    </personinfo>
    <personinfo id="410465917.22.293" depart="293.00" type="DEFAULT_PEDTYPE">
        <walk depart="293.00" departPos="21.70" arrival="294.00" arrivalPos="22.70" duration="1.00" routeLength="1.00" timeLoss="0.28" maxSpeed="1.39"/>
        <ride waitingTime="2812.00" vehicle="bus_22:0.0" depart="3106.00" arrival="3380.00" arrivalPos="12.28" duration="274.00" routeLength="933.89" timeLoss="26.56"/>
    </personinfo>
    <personinfo id="410486966.43.2824" depart="2824.00" type="DEFAULT_PEDTYPE">
        <walk depart="2824.00" departPos="57.30" arrival="2825.00" arrivalPos="58.30" duration="1.00" routeLength="1.00" timeLoss="0.28" maxSpeed="1.39"/>
        <ride waitingTime="52.00" vehicle="bus_43:0.1" depart="2877.00" arrival="3393.00" arrivalPos="18.81" duration="516.00" routeLength="1803.35" timeLoss="48.67"/>
    </personinfo>
    <personinfo id="410462291.43.208" depart="208.00" type="DEFAULT_PEDTYPE">
        <walk depart="208.00" departPos="415.85" arrival="541.00" arrivalPos="0.00" duration="333.00" routeLength="415.85" timeLoss="33.59" maxSpeed="1.39"/>
        <ride waitingTime="1018.00" vehicle="bus_43:0.0" depart="1559.00" arrival="3407.00" arrivalPos="107.56" duration="1848.00" routeLength="6396.49" timeLoss="180.00"/>
    </personinfo>
    <personinfo id="1855320978.43.1744" depart="1744.00" type="DEFAULT_PEDTYPE">
        <walk depart="1744.00" departPos="29.59" arrival="1745.00" arrivalPos="30.59" duration="1.00" routeLength="1.00" timeLoss="0.28" maxSpeed="1.39"/>
        <ride waitingTime="472.00" vehicle="bus_43:0.0" depart="2217.00" arrival="3408.00" arrivalPos="107.56" duration="1191.00" routeLength="4113.54" timeLoss="121.33"/>
    </personinfo>
    <personinfo id="410482520.22.2310" depart="2310.00" type="DEFAULT_PEDTYPE">
        <walk depart="2310.00" departPos="2.85" arrival="2311.00" arrivalPos="3.85" duration="1.00" routeLength="1.00" timeLoss="0.28" maxSpeed="1.39"/>
        <ride waitingTime="382.00" vehicle="bus_22:0.2" depart="2693.00" arrival="3432.00" arrivalPos="12.07" duration="739.00" routeLength="2582.30" timeLoss="71.93"/>
    </personinfo>
    <personinfo id="410460005.22.2016" depart="2016.00" type="DEFAULT_PEDTYPE">
        <walk depart="2016.00" departPos="284.34" arrival="2243.00" arrivalPos="0.00" duration="227.00" routeLength="284.34" timeLoss="22.28" maxSpeed="1.39"/>
        <ride waitingTime="159.00" vehicle="bus_22:0.4" depart="2402.00" arrival="3434.00" arrivalPos="27.46" duration="1032.00" routeLength="3661.73" timeLoss="89.14"/>
    </personinfo>
    <personinfo id="410459897.22.1530" depart="1530.00" type="DEFAULT_PEDTYPE">
        <walk depart="1530.00" departPos="23.17" arrival="1531.00" arrivalPos="24.17" duration="1.00" routeLength="1.00" timeLoss="0.28" maxSpeed="1.39"/>
        <ride waitingTime="579.00" vehicle="bus_22:0.3" depart="2110.00" arrival="3465.00" arrivalPos="36.76" duration="1355.00" routeLength="4780.97" timeLoss="122.19"/>
    </personinfo>
    <personinfo id="410462103.22.2672" depart="2672.00" type="DEFAULT_PEDTYPE">
        <walk depart="2672.00" departPos="11.46" arrival="2673.00" arrivalPos="12.46" duration="1.00" routeLength="1.00" timeLoss="0.28" maxSpeed="1.39"/>
        <ride waitingTime="170.00" vehicle="bus_22:0.3" depart="2843.00" arrival="3465.00" arrivalPos="36.76" duration="622.00" routeLength="2203.11" timeLoss="55.14"/>
    </personinfo>
    <personinfo id="410482568.22.1835" depart="1835.00" type="DEFAULT_PEDTYPE">
        <walk depart="1835.00" departPos="3.17" arrival="1836.00" arrivalPos="4.17" duration="1.00" routeLength="1.00" timeLoss="0.28" maxSpeed="1.39"/>
        <ride waitingTime="477.00" vehicle="bus_22:0.1" depart="2313.00" arrival="3473.00" arrivalPos="39.63" duration="1160.00" routeLength="4084.08" timeLoss="106.85"/>
    </personinfo>
    <personinfo id="410462103.22.2517" depart="2517.00" type="DEFAULT_PEDTYPE">
        <walk depart="2517.00" departPos="11.46" arrival="2518.00" arrivalPos="12.46" duration="1.00" routeLength="1.00" timeLoss="0.28" maxSpeed="1.39"/>
        <ride waitingTime="325.00" vehicle="bus_22:0.3" depart="2843.00" arrival="3524.00" arrivalPos="19.16" duration="681.00" routeLength="2399.02" timeLoss="61.92"/>
    </personinfo>