<?xml version="1.0" encoding="UTF-8"?>

<!-- generated on 2024-04-22 18:23:43 by Eclipse SUMO GUI Version 1.14.1
<configuration xmlns:xsi="http://www.w3.org/2001/XMLSchema-instance" xsi:noNamespaceSchemaLocation="http://sumo.dlr.de/xsd/sumoConfiguration.xsd">

    <input>
        <net-file value="singapore/sumo/singapore.net.xml"/>
        <route-files value="singapore/sumo/busFlows.rou.xml,singapore/sumo/randomCarsSpeed4.rou.xml"/>
        <additional-files value="singapore/sumo/busstops.xml"/>
    </input>

    <output>
        <tripinfo-output value="tripinfo.xml"/>
    </output>

    <processing>
        <no-internal-links value="true"/>
    </processing>

    <traci_server>
        <remote-port value="53694"/>
    </traci_server>

</configuration>
-->

<tripinfos xmlns:xsi="http://www.w3.org/2001/XMLSchema-instance" xsi:noNamespaceSchemaLocation="http://sumo.dlr.de/xsd/tripinfo_file.xsd">
    <personinfo id="410475114.43.457" depart="457.00" type="DEFAULT_PEDTYPE">
        <walk depart="457.00" departPos="84.99" arrival="458.00" arrivalPos="85.99" duration="1.00" routeLength="1.00" timeLoss="0.28" maxSpeed="1.39"/>
        <ride waitingTime="720.00" vehicle="bus_22:0.0" depart="1178.00" arrival="1349.00" arrivalPos="176.33" duration="171.00" routeLength="635.81" timeLoss="15.94"/>
    </personinfo>
    <personinfo id="410462103.22.541" depart="541.00" type="DEFAULT_PEDTYPE">
        <walk depart="541.00" departPos="51.46" arrival="542.00" arrivalPos="52.46" duration="1.00" routeLength="1.00" timeLoss="0.28" maxSpeed="1.39"/>
        <ride waitingTime="441.00" vehicle="bus_22:0.0" depart="983.00" arrival="1417.00" arrivalPos="13.85" duration="434.00" routeLength="1602.70" timeLoss="41.12"/>
    </personinfo>
    <personinfo id="410459897.22.430" depart="430.00" type="DEFAULT_PEDTYPE">
        <walk depart="430.00" departPos="23.17" arrival="431.00" arrivalPos="24.17" duration="1.00" routeLength="1.00" timeLoss="0.28" maxSpeed="1.39"/>
        <ride waitingTime="464.00" vehicle="bus_22:0.1" depart="895.00" arrival="1449.00" arrivalPos="19.00" duration="554.00" routeLength="2076.83" timeLoss="46.47"/>
    </personinfo>
    <personinfo id="1849631273.43.607" depart="607.00" type="DEFAULT_PEDTYPE">
        <walk depart="607.00" departPos="413.46" arrival="938.00" arrivalPos="0.00" duration="331.00" routeLength="413.46" timeLoss="33.31" maxSpeed="1.39"/>
        <ride waitingTime="144.00" vehicle="bus_43:0.0" depart="1082.00" arrival="1679.00" arrivalPos="205.29" duration="597.00" routeLength="2174.93" timeLoss="58.57"/>
    </personinfo>
    <personinfo id="410482520.22.85" depart="85.00" type="DEFAULT_PEDTYPE">
        <walk depart="85.00" departPos="2.85" arrival="86.00" arrivalPos="3.85" duration="1.00" routeLength="1.00" timeLoss="0.28" maxSpeed="1.39"/>
        <ride waitingTime="1333.00" vehicle="bus_22:0.0" depart="1419.00" arrival="1741.00" arrivalPos="83.08" duration="322.00" routeLength="1195.81" timeLoss="29.37"/>
    </personinfo>
    <personinfo id="410459651.22.338" depart="338.00" type="DEFAULT_PEDTYPE">
        <walk depart="338.00" departPos="15.18" arrival="339.00" arrivalPos="16.18" duration="1.00" routeLength="1.00" timeLoss="0.28" maxSpeed="1.39"/>
        <ride waitingTime="280.00" vehicle="bus_22:0.0" depart="619.00" arrival="1916.00" arrivalPos="98.66" duration="1297.00" routeLength="4816.77" timeLoss="115.25"/>
    </personinfo>
    <personinfo id="410482520.22.131" depart="131.00" type="DEFAULT_PEDTYPE">
        <walk depart="131.00" departPos="2.85" arrival="132.00" arrivalPos="3.85" duration="1.00" routeLength="1.00" timeLoss="0.28" maxSpeed="1.39"/>
        <ride waitingTime="1287.00" vehicle="bus_22:0.0" depart="1419.00" arrival="1916.00" arrivalPos="98.66" duration="497.00" routeLength="1843.55" timeLoss="45.39"/>
    </personinfo>
    <personinfo id="410486991.43.1145" depart="1145.00" type="DEFAULT_PEDTYPE">
        <walk depart="1145.00" departPos="194.33" arrival="1146.00" arrivalPos="195.33" duration="1.00" routeLength="1.00" timeLoss="0.28" maxSpeed="1.39"/>
        <ride waitingTime="535.00" vehicle="bus_43:0.0" depart="1681.00" arrival="1920.00" arrivalPos="29.60" duration="239.00" routeLength="866.39" timeLoss="24.71"/>
    </personinfo>
    <personinfo id="410459897.22.217" depart="217.00" type="DEFAULT_PEDTYPE">
        <walk depart="217.00" departPos="23.17" arrival="218.00" arrivalPos="24.17" duration="1.00" routeLength="1.00" timeLoss="0.28" maxSpeed="1.39"/>
        <ride waitingTime="69.00" vehicle="bus_22:0.0" depart="287.00" arrival="1990.00" arrivalPos="102.56" duration="1703.00" routeLength="6329.32" timeLoss="149.35"/>
    </personinfo>
    <personinfo id="410475114.22.780" depart="780.00" type="DEFAULT_PEDTYPE">
        <walk depart="780.00" departPos="84.99" arrival="781.00" arrivalPos="85.99" duration="1.00" routeLength="1.00" timeLoss="0.28" maxSpeed="1.39"/>
        <ride waitingTime="397.00" vehicle="bus_22:0.0" depart="1178.00" arrival="2035.00" arrivalPos="258.30" duration="857.00" routeLength="3144.72" timeLoss="82.05"/>
    </personinfo>
    <personinfo id="410459901.22.427" depart="427.00" type="DEFAULT_PEDTYPE">
        <walk depart="427.00" departPos="553.15" arrival="868.00" arrivalPos="0.00" duration="441.00" routeLength="553.15" timeLoss="42.73" maxSpeed="1.39"/>
        <ride waitingTime="469.00" vehicle="bus_22:0.2" depart="1337.00" arrival="2046.00" arrivalPos="19.00" duration="709.00" routeLength="2654.82" timeLoss="58.53"/>
    </personinfo>
    <personinfo id="410486991.43.1133" depart="1133.00" type="DEFAULT_PEDTYPE">
        <walk depart="1133.00" departPos="194.33" arrival="1134.00" arrivalPos="195.33" duration="1.00" routeLength="1.00" timeLoss="0.28" maxSpeed="1.39"/>
        <ride waitingTime="547.00" vehicle="bus_43:0.0" depart="1681.00" arrival="2102.00" arrivalPos="40.58" duration="421.00" routeLength="1549.57" timeLoss="39.08"/>
    </personinfo>
    <personinfo id="410475114.22.1376" depart="1376.00" type="DEFAULT_PEDTYPE">
        <walk depart="1376.00" departPos="84.99" arrival="1377.00" arrivalPos="85.99" duration="1.00" routeLength="1.00" timeLoss="0.28" maxSpeed="1.39"/>
        <ride waitingTime="409.00" vehicle="bus_22:0.1" depart="1786.00" arrival="2180.00" arrivalPos="31.75" duration="394.00" routeLength="1441.20" timeLoss="39.51"/>
    </personinfo>
    <personinfo id="410460005.22.592" depart="592.00" type="DEFAULT_PEDTYPE">
        <walk depart="592.00" departPos="286.81" arrival="823.00" arrivalPos="0.00" duration="231.00" routeLength="286.81" timeLoss="24.50" maxSpeed="1.39"/>
        <ride waitingTime="379.00" vehicle="bus_22:0.2" depart="1202.00" arrival="2182.00" arrivalPos="22.45" duration="980.00" routeLength="3653.98" timeLoss="83.84"/>
    </personinfo>
    <personinfo id="410459901.22.1407" depart="1407.00" type="DEFAULT_PEDTYPE">
        <walk depart="1407.00" departPos="553.15" arrival="1850.00" arrivalPos="0.00" duration="443.00" routeLength="553.15" timeLoss="44.73" maxSpeed="1.39"/>
        <ride waitingTime="87.00" vehicle="bus_22:0.3" depart="1937.00" arrival="2238.00" arrivalPos="48.69" duration="301.00" routeLength="1100.62" timeLoss="28.57"/>
    </personinfo>
    <personinfo id="4430976208.43.1638" depart="1638.00" type="DEFAULT_PEDTYPE">
        <walk depart="1638.00" departPos="18.61" arrival="1639.00" arrivalPos="19.61" duration="1.00" routeLength="1.00" timeLoss="0.28" maxSpeed="1.39"/>
        <ride waitingTime="282.00" vehicle="bus_43:0.0" depart="1921.00" arrival="2308.00" arrivalPos="33.16" duration="387.00" routeLength="1442.93" timeLoss="34.08"/>
    </personinfo>
    <personinfo id="410460005.22.58" depart="58.00" type="DEFAULT_PEDTYPE">
        <walk depart="58.00" departPos="286.81" arrival="289.00" arrivalPos="0.00" duration="231.00" routeLength="286.81" timeLoss="24.50" maxSpeed="1.39"/>
        <ride waitingTime="313.00" vehicle="bus_22:0.1" depart="602.00" arrival="2352.00" arrivalPos="83.09" duration="1750.00" routeLength="6492.45" timeLoss="157.53"/>
    </personinfo>
    <personinfo id="410459651.22.906" depart="906.00" type="DEFAULT_PEDTYPE">
        <walk depart="906.00" departPos="15.18" arrival="907.00" arrivalPos="16.18" duration="1.00" routeLength="1.00" timeLoss="0.28" maxSpeed="1.39"/>
        <ride waitingTime="322.00" vehicle="bus_22:0.1" depart="1229.00" arrival="2352.00" arrivalPos="83.09" duration="1123.00" routeLength="4168.97" timeLoss="100.22"/>
    </personinfo>
    <personinfo id="410486991.43.1915" depart="1915.00" type="DEFAULT_PEDTYPE">
        <walk depart="1915.00" departPos="194.33" arrival="1916.00" arrivalPos="195.33" duration="1.00" routeLength="1.00" timeLoss="0.28" maxSpeed="1.39"/>
        <ride waitingTime="356.00" vehicle="bus_43:0.1" depart="2272.00" arrival="2395.00" arrivalPos="60.88" duration="123.00" routeLength="458.97" timeLoss="11.08"/>
    </personinfo>
    <personinfo id="410459904.22.2106" depart="2106.00" type="DEFAULT_PEDTYPE">
        <walk depart="2106.00" departPos="19.22" arrival="2107.00" arrivalPos="20.22" duration="1.00" routeLength="1.00" timeLoss="0.28" maxSpeed="1.39"/>
        <ride waitingTime="14.00" vehicle="bus_22:0.3" depart="2121.00" arrival="2433.00" arrivalPos="26.18" duration="312.00" routeLength="1156.35" timeLoss="28.98"/>
    </personinfo>
    <personinfo id="410459901.22.505" depart="505.00" type="DEFAULT_PEDTYPE">
        <walk depart="505.00" departPos="553.15" arrival="946.00" arrivalPos="0.00" duration="441.00" routeLength="553.15" timeLoss="42.73" maxSpeed="1.39"/>
        <ride waitingTime="391.00" vehicle="bus_22:0.2" depart="1337.00" arrival="2475.00" arrivalPos="24.55" duration="1138.00" routeLength="4238.56" timeLoss="98.28"/>
    </personinfo>
    <personinfo id="410462103.22.1952" depart="1952.00" type="DEFAULT_PEDTYPE">
        <walk depart="1952.00" departPos="51.46" arrival="1953.00" arrivalPos="52.46" duration="1.00" routeLength="1.00" timeLoss="0.28" maxSpeed="1.39"/>
        <ride waitingTime="245.00" vehicle="bus_22:0.2" depart="2198.00" arrival="2562.00" arrivalPos="176.35" duration="364.00" routeLength="1357.77" timeLoss="31.86"/>
    </personinfo>
    <personinfo id="1847853709.43.659" depart="659.00" type="DEFAULT_PEDTYPE">
        <walk depart="659.00" departPos="16.23" arrival="660.00" arrivalPos="17.23" duration="1.00" routeLength="1.00" timeLoss="0.28" maxSpeed="1.39"/>
        <ride waitingTime="3.00" vehicle="bus_43:0.1" depart="663.00" arrival="2571.00" arrivalPos="11.12" duration="1908.00" routeLength="7162.51" timeLoss="156.09"/>
    </personinfo>
    <personinfo id="1849631331.43.1146" depart="1146.00" type="DEFAULT_PEDTYPE">
        <walk depart="1146.00" departPos="42.45" arrival="1147.00" arrivalPos="43.45" duration="1.00" routeLength="1.00" timeLoss="0.28" maxSpeed="1.39"/>
        <ride waitingTime="313.00" vehicle="bus_43:0.2" depart="1460.00" arrival="2595.00" arrivalPos="29.63" duration="1135.00" routeLength="4247.90" timeLoss="94.96"/>
    </personinfo>
    <personinfo id="1531005322.22.1842" depart="1842.00" type="DEFAULT_PEDTYPE">
        <walk depart="1842.00" departPos="12.13" arrival="1843.00" arrivalPos="13.13" duration="1.00" routeLength="1.00" timeLoss="0.28" maxSpeed="1.39"/>
        <ride waitingTime="31.00" vehicle="bus_22:0.1" depart="1874.00" arrival="2597.00" arrivalPos="102.56" duration="723.00" routeLength="2668.73" timeLoss="67.12"/>
    </personinfo>
    <personinfo id="410486991.43.1554" depart="1554.00" type="DEFAULT_PEDTYPE">
        <walk depart="1554.00" departPos="194.33" arrival="1555.00" arrivalPos="195.33" duration="1.00" routeLength="1.00" timeLoss="0.28" maxSpeed="1.39"/>
        <ride waitingTime="126.00" vehicle="bus_43:0.0" depart="1681.00" arrival="2648.00" arrivalPos="13.85" duration="967.00" routeLength="3554.88" timeLoss="91.02"/>
    </personinfo>
    <personinfo id="410459904.22.1829" depart="1829.00" type="DEFAULT_PEDTYPE">
        <walk depart="1829.00" departPos="19.22" arrival="1830.00" arrivalPos="20.22" duration="1.00" routeLength="1.00" timeLoss="0.28" maxSpeed="1.39"/>
        <ride waitingTime="291.00" vehicle="bus_22:0.3" depart="2121.00" arrival="2656.00" arrivalPos="18.99" duration="535.00" routeLength="1985.26" timeLoss="48.81"/>
    </personinfo>
    <personinfo id="410482568.22.149" depart="149.00" type="DEFAULT_PEDTYPE">
        <walk depart="149.00" departPos="3.17" arrival="150.00" arrivalPos="4.17" duration="1.00" routeLength="1.00" timeLoss="0.28" maxSpeed="1.39"/>
        <ride waitingTime="1474.00" vehicle="bus_22:0.0" depart="1624.00" arrival="2726.00" arrivalPos="34.64" duration="1102.00" routeLength="4084.13" timeLoss="98.91"/>
    </personinfo>
    <personinfo id="410483103.22.1360" depart="1360.00" type="DEFAULT_PEDTYPE">
        <walk depart="1360.00" departPos="165.36" arrival="1361.00" arrivalPos="166.36" duration="1.00" routeLength="1.00" timeLoss="0.28" maxSpeed="1.39"/>
        <ride waitingTime="599.00" vehicle="bus_22:0.1" depart="1960.00" arrival="2727.00" arrivalPos="10.11" duration="767.00" routeLength="2830.26" timeLoss="71.72"/>
    </personinfo>
    <personinfo id="410483103.22.1507" depart="1507.00" type="DEFAULT_PEDTYPE">
        <walk depart="1507.00" departPos="165.36" arrival="1508.00" arrivalPos="166.36" duration="1.00" routeLength="1.00" timeLoss="0.28" maxSpeed="1.39"/>
        <ride waitingTime="452.00" vehicle="bus_22:0.1" depart="1960.00" arrival="2727.00" arrivalPos="10.11" duration="767.00" routeLength="2830.26" timeLoss="71.72"/>
    </personinfo>
    <personinfo id="410482570.22.2546" depart="2546.00" type="DEFAULT_PEDTYPE">
        <walk depart="2546.00" departPos="91.56" arrival="2547.00" arrivalPos="92.56" duration="1.00" routeLength="1.00" timeLoss="0.28" maxSpeed="1.39"/>
        <ride waitingTime="51.00" vehicle="bus_22:0.1" depart="2598.00" arrival="2727.00" arrivalPos="10.11" duration="129.00" routeLength="477.10" timeLoss="12.64"/>
    </personinfo>
    <personinfo id="410480724.22.653" depart="653.00" type="DEFAULT_PEDTYPE">
        <walk depart="653.00" departPos="26.17" arrival="654.00" arrivalPos="27.17" duration="1.00" routeLength="1.00" timeLoss="0.28" maxSpeed="1.39"/>
        <ride waitingTime="1985.00" vehicle="bus_22:0.0" depart="2639.00" arrival="2727.00" arrivalPos="34.64" duration="88.00" routeLength="311.74" timeLoss="10.97"/>
    </personinfo>
    <personinfo id="410462293.43.1854" depart="1854.00" type="DEFAULT_PEDTYPE">
        <walk depart="1854.00" departPos="10.48" arrival="1855.00" arrivalPos="11.48" duration="1.00" routeLength="1.00" timeLoss="0.28" maxSpeed="1.39"/>
        <ride waitingTime="20.00" vehicle="bus_43:0.1" depart="1875.00" arrival="2753.00" arrivalPos="108.29" duration="878.00" routeLength="3268.63" timeLoss="76.82"/>
    </personinfo>
    <personinfo id="410459904.22.1502" depart="1502.00" type="DEFAULT_PEDTYPE">
        <walk depart="1502.00" departPos="19.22" arrival="1503.00" arrivalPos="20.22" duration="1.00" routeLength="1.00" timeLoss="0.28" maxSpeed="1.39"/>
        <ride waitingTime="17.00" vehicle="bus_22:0.2" depart="1520.00" arrival="2781.00" arrivalPos="31.73" duration="1261.00" routeLength="4689.91" timeLoss="111.19"/>
    </personinfo>
    <personinfo id="410483103.43.1966" depart="1966.00" type="DEFAULT_PEDTYPE">
        <walk depart="1966.00" departPos="165.36" arrival="1967.00" arrivalPos="166.36" duration="1.00" routeLength="1.00" timeLoss="0.28" maxSpeed="1.39"/>
        <ride waitingTime="596.00" vehicle="bus_22:0.2" depart="2563.00" arrival="2781.00" arrivalPos="31.73" duration="218.00" routeLength="805.33" timeLoss="20.61"/>
    </personinfo>
    <personinfo id="410459904.22.2043" depart="2043.00" type="DEFAULT_PEDTYPE">
        <walk depart="2043.00" departPos="19.22" arrival="2044.00" arrivalPos="20.22" duration="1.00" routeLength="1.00" timeLoss="0.28" maxSpeed="1.39"/>
        <ride waitingTime="77.00" vehicle="bus_22:0.3" depart="2121.00" arrival="2791.00" arrivalPos="22.46" duration="670.00" routeLength="2486.86" timeLoss="60.48"/>
    </personinfo>
    <personinfo id="410459651.22.1883" depart="1883.00" type="DEFAULT_PEDTYPE">
        <walk depart="1883.00" departPos="15.18" arrival="1884.00" arrivalPos="16.18" duration="1.00" routeLength="1.00" timeLoss="0.28" maxSpeed="1.39"/>
        <ride waitingTime="550.00" vehicle="bus_22:0.3" depart="2434.00" arrival="2791.00" arrivalPos="22.46" duration="357.00" routeLength="1330.54" timeLoss="31.51"/>
    </personinfo>
    <personinfo id="410460005.22.1751" depart="1751.00" type="DEFAULT_PEDTYPE">
        <walk depart="1751.00" departPos="286.81" arrival="1982.00" arrivalPos="0.00" duration="231.00" routeLength="286.81" timeLoss="24.50" maxSpeed="1.39"/>
        <ride waitingTime="421.00" vehicle="bus_22:0.4" depart="2403.00" arrival="2840.00" arrivalPos="48.69" duration="437.00" routeLength="1598.17" timeLoss="43.23"/>
    </personinfo>
    <personinfo id="410471030.22.2270" depart="2270.00" type="DEFAULT_PEDTYPE">
        <walk depart="2270.00" departPos="18.18" arrival="2271.00" arrivalPos="19.18" duration="1.00" routeLength="1.00" timeLoss="0.28" maxSpeed="1.39"/>
        <ride waitingTime="556.00" vehicle="bus_22:0.1" depart="2827.00" arrival="2970.00" arrivalPos="20.97" duration="143.00" routeLength="531.14" timeLoss="13.47"/>
    </personinfo>
    <personinfo id="410471030.22.2504" depart="2504.00" type="DEFAULT_PEDTYPE">
        <walk depart="2504.00" departPos="18.18" arrival="2505.00" arrivalPos="19.18" duration="1.00" routeLength="1.00" timeLoss="0.28" maxSpeed="1.39"/>
        <ride waitingTime="322.00" vehicle="bus_22:0.1" depart="2827.00" arrival="2970.00" arrivalPos="20.97" duration="143.00" routeLength="531.14" timeLoss="13.47"/>
    </personinfo>
    <personinfo id="410486955.43.1165" depart="1165.00" type="DEFAULT_PEDTYPE">
        <walk depart="1165.00" departPos="49.88" arrival="1166.00" arrivalPos="50.88" duration="1.00" routeLength="1.00" timeLoss="0.28" maxSpeed="1.39"/>
        <ride waitingTime="642.00" vehicle="bus_43:0.0" depart="1808.00" arrival="2970.00" arrivalPos="83.09" duration="1162.00" routeLength="4291.79" timeLoss="105.30"/>
    </personinfo>
    <personinfo id="410467153.22.2533" depart="2533.00" type="DEFAULT_PEDTYPE">
        <walk depart="2533.00" departPos="8.01" arrival="2534.00" arrivalPos="9.01" duration="1.00" routeLength="1.00" timeLoss="0.28" maxSpeed="1.39"/>
        <ride waitingTime="123.00" vehicle="bus_22:0.3" depart="2657.00" arrival="3080.00" arrivalPos="24.59" duration="423.00" routeLength="1583.82" timeLoss="34.73"/>
    </personinfo>
    <personinfo id="410464248.22.474" depart="474.00" type="DEFAULT_PEDTYPE">
        <walk depart="474.00" departPos="23.64" arrival="475.00" arrivalPos="24.64" duration="1.00" routeLength="1.00" timeLoss="0.28" maxSpeed="1.39"/>
        <ride waitingTime="2253.00" vehicle="bus_22:0.0" depart="2728.00" arrival="3080.00" arrivalPos="10.73" duration="352.00" routeLength="1264.74" timeLoss="33.54"/>
    </personinfo>
    <personinfo id="410464248.22.1087" depart="1087.00" type="DEFAULT_PEDTYPE">
        <walk depart="1087.00" departPos="23.64" arrival="1088.00" arrivalPos="24.64" duration="1.00" routeLength="1.00" timeLoss="0.28" maxSpeed="1.39"/>
        <ride waitingTime="1640.00" vehicle="bus_22:0.0" depart="2728.00" arrival="3081.00" arrivalPos="10.73" duration="353.00" routeLength="1264.74" timeLoss="33.54"/>
    </personinfo>
    <personinfo id="410465917.22.665" depart="665.00" type="DEFAULT_PEDTYPE">
        <walk depart="665.00" departPos="21.70" arrival="666.00" arrivalPos="22.70" duration="1.00" routeLength="1.00" timeLoss="0.28" maxSpeed="1.39"/>
        <ride waitingTime="2280.00" vehicle="bus_22:0.0" depart="2946.00" arrival="3081.00" arrivalPos="10.73" duration="135.00" routeLength="479.12" timeLoss="13.15"/>
    </personinfo>
    <personinfo id="410465917.22.802" depart="802.00" type="DEFAULT_PEDTYPE">
        <walk depart="802.00" departPos="21.70" arrival="803.00" arrivalPos="22.70" duration="1.00" routeLength="1.00" timeLoss="0.28" maxSpeed="1.39"/>
        <ride waitingTime="2143.00" vehicle="bus_22:0.0" depart="2946.00" arrival="3082.00" arrivalPos="10.73" duration="136.00" routeLength="479.12" timeLoss="13.15"/>
    </personinfo>
    <personinfo id="410465917.22.2443" depart="2443.00" type="DEFAULT_PEDTYPE">
        <walk depart="2443.00" departPos="21.70" arrival="2444.00" arrivalPos="22.70" duration="1.00" routeLength="1.00" timeLoss="0.28" maxSpeed="1.39"/>
        <ride waitingTime="502.00" vehicle="bus_22:0.0" depart="2946.00" arrival="3082.00" arrivalPos="10.73" duration="136.00" routeLength="479.09" timeLoss="13.15"/>
    </personinfo>
    <personinfo id="410465917.22.2809" depart="2809.00" type="DEFAULT_PEDTYPE">
        <walk depart="2809.00" departPos="21.70" arrival="2810.00" arrivalPos="22.70" duration="1.00" routeLength="1.00" timeLoss="0.28" maxSpeed="1.39"/>
        <ride waitingTime="136.00" vehicle="bus_22:0.0" depart="2946.00" arrival="3083.00" arrivalPos="10.73" duration="137.00" routeLength="479.09" timeLoss="13.15"/>
    </personinfo>
    <personinfo id="410462211.43.2303" depart="2303.00" type="DEFAULT_PEDTYPE">
        <walk depart="2303.00" departPos="18.63" arrival="2304.00" arrivalPos="19.63" duration="1.00" routeLength="1.00" timeLoss="0.28" maxSpeed="1.39"/>
        <ride waitingTime="293.00" vehicle="bus_43:0.2" depart="2597.00" arrival="3118.00" arrivalPos="29.60" duration="521.00" routeLength="1918.23" timeLoss="49.18"/>
    </personinfo>
    <personinfo id="410460005.22.1207" depart="1207.00" type="DEFAULT_PEDTYPE">
        <walk depart="1207.00" departPos="286.81" arrival="1437.00" arrivalPos="0.00" duration="230.00" routeLength="286.81" timeLoss="23.50" maxSpeed="1.39"/>
        <ride waitingTime="365.00" vehicle="bus_22:0.3" depart="1802.00" arrival="3168.00" arrivalPos="176.35" duration="1366.00" routeLength="5051.71" timeLoss="121.94"/>
    </personinfo>
    <personinfo id="410460005.22.529" depart="529.00" type="DEFAULT_PEDTYPE">
        <walk depart="529.00" departPos="286.81" arrival="760.00" arrivalPos="0.00" duration="231.00" routeLength="286.81" timeLoss="24.50" maxSpeed="1.39"/>
        <ride waitingTime="442.00" vehicle="bus_22:0.2" depart="1202.00" arrival="3195.00" arrivalPos="102.54" duration="1993.00" routeLength="7404.84" timeLoss="175.05"/>
    </personinfo>
    <personinfo id="410462103.22.375" depart="375.00" type="DEFAULT_PEDTYPE">
        <walk depart="375.00" departPos="51.46" arrival="376.00" arrivalPos="52.46" duration="1.00" routeLength="1.00" timeLoss="0.28" maxSpeed="1.39"/>
        <ride waitingTime="607.00" vehicle="bus_22:0.0" depart="983.00" arrival="3209.00" arrivalPos="10.28" duration="2226.00" routeLength="8165.55" timeLoss="205.48"/>
    </personinfo>
    <personinfo id="410465916.22.484" depart="484.00" type="DEFAULT_PEDTYPE">
        <walk depart="484.00" departPos="28.40" arrival="485.00" arrivalPos="29.40" duration="1.00" routeLength="1.00" timeLoss="0.28" maxSpeed="1.39"/>
        <ride waitingTime="2350.00" vehicle="bus_22:0.0" depart="2835.00" arrival="3209.00" arrivalPos="10.28" duration="374.00" routeLength="1332.13" timeLoss="36.10"/>
    </personinfo>
    <personinfo id="410465917.22.489" depart="489.00" type="DEFAULT_PEDTYPE">
        <walk depart="489.00" departPos="21.70" arrival="490.00" arrivalPos="22.70" duration="1.00" routeLength="1.00" timeLoss="0.28" maxSpeed="1.39"/>
        <ride waitingTime="2456.00" vehicle="bus_22:0.0" depart="2946.00" arrival="3210.00" arrivalPos="10.28" duration="264.00" routeLength="936.86" timeLoss="25.51"/>
    </personinfo>
    <personinfo id="410465917.22.1250" depart="1250.00" type="DEFAULT_PEDTYPE">
        <walk depart="1250.00" departPos="21.70" arrival="1251.00" arrivalPos="22.70" duration="1.00" routeLength="1.00" timeLoss="0.28" maxSpeed="1.39"/>
        <ride waitingTime="1695.00" vehicle="bus_22:0.0" depart="2946.00" arrival="3210.00" arrivalPos="10.28" duration="264.00" routeLength="936.83" timeLoss="25.51"/>
    </personinfo>
    <personinfo id="410465915.22.1078" depart="1078.00" type="DEFAULT_PEDTYPE">
        <walk depart="1078.00" departPos="138.08" arrival="1190.00" arrivalPos="0.00" duration="112.00" routeLength="138.08" timeLoss="12.58" maxSpeed="1.39"/>
        <ride waitingTime="1894.00" vehicle="bus_22:0.0" depart="3084.00" arrival="3211.00" arrivalPos="10.28" duration="127.00" routeLength="457.75" timeLoss="12.36"/>
    </personinfo>
    <personinfo id="410465915.22.1573" depart="1573.00" type="DEFAULT_PEDTYPE">
        <walk depart="1573.00" departPos="138.08" arrival="1686.00" arrivalPos="0.00" duration="113.00" routeLength="138.08" timeLoss="13.58" maxSpeed="1.39"/>
        <ride waitingTime="1398.00" vehicle="bus_22:0.0" depart="3084.00" arrival="3211.00" arrivalPos="10.28" duration="127.00" routeLength="457.75" timeLoss="12.36"/>
    </personinfo>
    <personinfo id="410465915.22.2570" depart="2570.00" type="DEFAULT_PEDTYPE">
        <walk depart="2570.00" departPos="138.08" arrival="2681.00" arrivalPos="0.00" duration="111.00" routeLength="138.08" timeLoss="11.58" maxSpeed="1.39"/>
        <ride waitingTime="403.00" vehicle="bus_22:0.0" depart="3084.00" arrival="3212.00" arrivalPos="10.28" duration="128.00" routeLength="457.74" timeLoss="12.36"/>
    </personinfo>
    <personinfo id="410465915.22.2885" depart="2885.00" type="DEFAULT_PEDTYPE">
        <walk depart="2885.00" departPos="138.08" arrival="2996.00" arrivalPos="0.00" duration="111.00" routeLength="138.08" timeLoss="11.58" maxSpeed="1.39"/>
        <ride waitingTime="88.00" vehicle="bus_22:0.0" depart="3084.00" arrival="3212.00" arrivalPos="10.28" duration="128.00" routeLength="457.74" timeLoss="12.36"/>
    </personinfo>
    <personinfo id="410480722.22.2862" depart="2862.00" type="DEFAULT_PEDTYPE">
        <walk depart="2862.00" departPos="184.20" arrival="2863.00" arrivalPos="185.20" duration="1.00" routeLength="1.00" timeLoss="0.28" maxSpeed="1.39"/>
        <ride waitingTime="203.00" vehicle="bus_22:0.1" depart="3066.00" arrival="3256.00" arrivalPos="37.16" duration="190.00" routeLength="711.83" timeLoss="16.39"/>
    </personinfo>
    <personinfo id="410482520.43.2589" depart="2589.00" type="DEFAULT_PEDTYPE">
        <walk depart="2589.00" departPos="2.85" arrival="2590.00" arrivalPos="3.85" duration="1.00" routeLength="1.00" timeLoss="0.28" maxSpeed="1.39"/>
        <ride waitingTime="42.00" vehicle="bus_22:0.2" depart="2632.00" arrival="3327.00" arrivalPos="10.09" duration="695.00" routeLength="2585.35" timeLoss="61.47"/>
    </personinfo>
    <personinfo id="410482572.43.2473" depart="2473.00" type="DEFAULT_PEDTYPE">
        <walk depart="2473.00" departPos="20.76" arrival="2474.00" arrivalPos="21.76" duration="1.00" routeLength="1.00" timeLoss="0.28" maxSpeed="1.39"/>
        <ride waitingTime="309.00" vehicle="bus_22:0.2" depart="2783.00" arrival="3327.00" arrivalPos="10.09" duration="544.00" routeLength="2024.96" timeLoss="49.14"/>
    </personinfo>
    <personinfo id="410480722.22.2933" depart="2933.00" type="DEFAULT_PEDTYPE">
        <walk depart="2933.00" departPos="184.20" arrival="2934.00" arrivalPos="185.20" duration="1.00" routeLength="1.00" timeLoss="0.28" maxSpeed="1.39"/>
        <ride waitingTime="132.00" vehicle="bus_22:0.1" depart="3066.00" arrival="3343.00" arrivalPos="34.63" duration="277.00" routeLength="1023.56" timeLoss="25.36"/>
    </personinfo>
    <personinfo id="1531005322.43.2685" depart="2685.00" type="DEFAULT_PEDTYPE">
        <walk depart="2685.00" departPos="12.13" arrival="2686.00" arrivalPos="13.13" duration="1.00" routeLength="1.00" timeLoss="0.28" maxSpeed="1.39"/>
        <ride waitingTime="396.00" vehicle="bus_22:0.3" depart="3082.00" arrival="3389.00" arrivalPos="31.75" duration="307.00" routeLength="1120.90" timeLoss="31.63"/>
    </personinfo>
    <personinfo id="1531005322.22.2863" depart="2863.00" type="DEFAULT_PEDTYPE">
        <walk depart="2863.00" departPos="12.13" arrival="2864.00" arrivalPos="13.13" duration="1.00" routeLength="1.00" timeLoss="0.28" maxSpeed="1.39"/>
        <ride waitingTime="218.00" vehicle="bus_22:0.3" depart="3082.00" arrival="3389.00" arrivalPos="31.75" duration="307.00" routeLength="1120.90" timeLoss="31.63"/>
    </personinfo>
    <personinfo id="410482520.22.3213" depart="3213.00" type="DEFAULT_PEDTYPE">
        <walk depart="3213.00" departPos="2.85" arrival="3214.00" arrivalPos="3.85" duration="1.00" routeLength="1.00" timeLoss="0.28" maxSpeed="1.39"/>
        <ride waitingTime="24.00" vehicle="bus_22:0.3" depart="3238.00" arrival="3389.00" arrivalPos="31.75" duration="151.00" routeLength="560.40" timeLoss="14.32"/>
    </personinfo>
    <personinfo id="410460005.22.1929" depart="1929.00" type="DEFAULT_PEDTYPE">
        <walk depart="1929.00" departPos="286.81" arrival="2158.00" arrivalPos="0.00" duration="229.00" routeLength="286.81" timeLoss="22.50" maxSpeed="1.39"/>
        <ride waitingTime="245.00" vehicle="bus_22:0.4" depart="2403.00" arrival="3392.00" arrivalPos="22.45" duration="989.00" routeLength="3653.98" timeLoss="91.82"/>
    </personinfo>
    <personinfo id="410459897.22.2559" depart="2559.00" type="DEFAULT_PEDTYPE">
        <walk depart="2559.00" departPos="23.17" arrival="2560.00" arrivalPos="24.17" duration="1.00" routeLength="1.00" timeLoss="0.28" maxSpeed="1.39"/>
        <ride waitingTime="133.00" vehicle="bus_22:0.4" depart="2693.00" arrival="3393.00" arrivalPos="22.45" duration="700.00" routeLength="2578.44" timeLoss="66.14"/>
    </personinfo>
    <personinfo id="410459904.22.2244" depart="2244.00" type="DEFAULT_PEDTYPE">
        <walk depart="2244.00" departPos="19.22" arrival="2245.00" arrivalPos="20.22" duration="1.00" routeLength="1.00" timeLoss="0.28" maxSpeed="1.39"/>
        <ride waitingTime="478.00" vehicle="bus_22:0.4" depart="2723.00" arrival="3393.00" arrivalPos="22.45" duration="670.00" routeLength="2486.86" timeLoss="60.47"/>