<?xml version="1.0" encoding="UTF-8"?>

<!-- generated on 2024-03-11 11:49:02 by Eclipse SUMO GUI Version 1.14.1
<configuration xmlns:xsi="http://www.w3.org/2001/XMLSchema-instance" xsi:noNamespaceSchemaLocation="http://sumo.dlr.de/xsd/sumoConfiguration.xsd">

    <input>
        <net-file value="singapore/singapore.net.xml"/>
        <route-files value="singapore/busFlows.rou.xml"/>
        <additional-files value="singapore/busstops.xml"/>
    </input>

    <output>
        <tripinfo-output value="tripinfo.xml"/>
    </output>

    <processing>
        <no-internal-links value="true"/>
    </processing>

    <traci_server>
        <remote-port value="51412"/>
    </traci_server>

</configuration>
-->

<tripinfos xmlns:xsi="http://www.w3.org/2001/XMLSchema-instance" xsi:noNamespaceSchemaLocation="http://sumo.dlr.de/xsd/tripinfo_file.xsd">
    <tripinfo id="bus_22:0.0" depart="0.00" departLane="543768663_0" departPos="7.80" departSpeed="0.00" departDelay="0.00" arrival="953.00" arrivalLane="245934570#2_0" arrivalPos="422.97" arrivalSpeed="5.41" duration="953.00" routeLength="12633.03" waitingTime="0.00" waitingCount="0" stopTime="0.00" timeLoss="80.55" rerouteNo="0" devices="tripinfo_bus_22:0.0" vType="bus" speedFactor="1.00" vaporized=""/>
    <tripinfo id="bus_22:0.1" depart="600.00" departLane="543768663_0" departPos="7.80" departSpeed="0.00" departDelay="0.00" arrival="1553.00" arrivalLane="245934570#2_0" arrivalPos="422.97" arrivalSpeed="5.05" duration="953.00" routeLength="12633.03" waitingTime="0.00" waitingCount="0" stopTime="0.00" timeLoss="80.22" rerouteNo="0" devices="tripinfo_bus_22:0.1" vType="bus" speedFactor="1.00" vaporized=""/>
    <tripinfo id="bus_43:0.0" depart="0.00" departLane="1111008091_0" departPos="12.10" departSpeed="0.00" departDelay="0.00" arrival="1567.00" arrivalLane="528461109_0" arrivalPos="176.67" arrivalSpeed="5.36" duration="1567.00" routeLength="21752.29" waitingTime="0.00" waitingCount="0" stopTime="1.00" timeLoss="131.90" rerouteNo="0" devices="tripinfo_bus_43:0.0" vType="bus" speedFactor="1.00" vaporized=""/>
    <tripinfo id="bus_22:0.2" depart="1200.00" departLane="543768663_0" departPos="7.80" departSpeed="0.00" departDelay="0.00" arrival="2152.00" arrivalLane="245934570#2_0" arrivalPos="422.97" arrivalSpeed="5.27" duration="952.00" routeLength="12633.03" waitingTime="0.00" waitingCount="0" stopTime="0.00" timeLoss="79.65" rerouteNo="0" devices="tripinfo_bus_22:0.2" vType="bus" speedFactor="1.00" vaporized=""/>
    <tripinfo id="bus_43:0.1" depart="600.00" departLane="1111008091_0" departPos="12.10" departSpeed="0.00" departDelay="0.00" arrival="2174.00" arrivalLane="528461109_0" arrivalPos="176.67" arrivalSpeed="5.42" duration="1574.00" routeLength="21752.29" waitingTime="0.00" waitingCount="0" stopTime="0.00" timeLoss="139.89" rerouteNo="0" devices="tripinfo_bus_43:0.1" vType="bus" speedFactor="1.00" vaporized=""/>
    <tripinfo id="bus_43:0.2" depart="1200.00" departLane="1111008091_0" departPos="12.10" departSpeed="0.00" departDelay="0.00" arrival="2765.00" arrivalLane="528461109_0" arrivalPos="176.67" arrivalSpeed="5.37" duration="1565.00" routeLength="21752.29" waitingTime="0.00" waitingCount="0" stopTime="0.00" timeLoss="131.52" rerouteNo="0" devices="tripinfo_bus_43:0.2" vType="bus" speedFactor="1.00" vaporized=""/>
    <tripinfo id="bus_22:0.3" depart="1800.00" departLane="543768663_0" departPos="7.80" departSpeed="0.00" departDelay="0.00" arrival="2766.00" arrivalLane="245934570#2_0" arrivalPos="422.97" arrivalSpeed="5.05" duration="966.00" routeLength="12633.03" waitingTime="3.00" waitingCount="1" stopTime="0.00" timeLoss="93.36" rerouteNo="0" devices="tripinfo_bus_22:0.3" vType="bus" speedFactor="1.00" vaporized=""/>
    <tripinfo id="bus_22:0.4" depart="2400.00" departLane="543768663_0" departPos="7.80" departSpeed="0.00" departDelay="0.00" arrival="3351.00" arrivalLane="245934570#2_0" arrivalPos="422.97" arrivalSpeed="5.02" duration="951.00" routeLength="12633.03" waitingTime="0.00" waitingCount="0" stopTime="0.00" timeLoss="77.54" rerouteNo="0" devices="tripinfo_bus_22:0.4" vType="bus" speedFactor="1.00" vaporized=""/>
    <tripinfo id="bus_43:0.3" depart="1800.00" departLane="1111008091_0" departPos="12.10" departSpeed="0.00" departDelay="0.00" arrival="3366.00" arrivalLane="528461109_0" arrivalPos="176.67" arrivalSpeed="5.32" duration="1566.00" routeLength="21752.29" waitingTime="0.00" waitingCount="0" stopTime="0.00" timeLoss="131.97" rerouteNo="0" devices="tripinfo_bus_43:0.3" vType="bus" speedFactor="1.00" vaporized=""/>
    <tripinfo id="bus_22:0.5" depart="3000.00" departLane="543768663_0" departPos="7.80" departSpeed="0.00" departDelay="0.00" arrival="3951.00" arrivalLane="245934570#2_0" arrivalPos="422.97" arrivalSpeed="5.37" duration="951.00" routeLength="12633.03" waitingTime="0.00" waitingCount="0" stopTime="0.00" timeLoss="77.86" rerouteNo="0" devices="tripinfo_bus_22:0.5" vType="bus" speedFactor="1.00" vaporized=""/>
    <tripinfo id="bus_43:0.4" depart="2400.00" departLane="1111008091_0" departPos="12.10" departSpeed="0.00" departDelay="0.00" arrival="3966.00" arrivalLane="528461109_0" arrivalPos="176.67" arrivalSpeed="5.46" duration="1566.00" routeLength="21752.29" waitingTime="0.00" waitingCount="0" stopTime="0.00" timeLoss="132.05" rerouteNo="0" devices="tripinfo_bus_43:0.4" vType="bus" speedFactor="1.00" vaporized=""/>
    <tripinfo id="bus_22:0.6" depart="3600.00" departLane="543768663_0" departPos="7.80" departSpeed="0.00" departDelay="0.00" arrival="4555.00" arrivalLane="245934570#2_0" arrivalPos="422.97" arrivalSpeed="5.42" duration="955.00" routeLength="12633.03" waitingTime="0.00" waitingCount="0" stopTime="0.00" timeLoss="82.85" rerouteNo="0" devices="tripinfo_bus_22:0.6" vType="bus" speedFactor="1.00" vaporized=""/>
    <tripinfo id="bus_43:0.5" depart="3000.00" departLane="1111008091_0" departPos="12.10" departSpeed="0.00" departDelay="0.00" arrival="4571.00" arrivalLane="528461109_0" arrivalPos="176.67" arrivalSpeed="5.42" duration="1571.00" routeLength="21752.29" waitingTime="0.00" waitingCount="0" stopTime="0.00" timeLoss="136.84" rerouteNo="0" devices="tripinfo_bus_43:0.5" vType="bus" speedFactor="1.00" vaporized=""/>
    <tripinfo id="bus_22:0.7" depart="4200.00" departLane="543768663_0" departPos="7.80" departSpeed="0.00" departDelay="0.00" arrival="5157.00" arrivalLane="245934570#2_0" arrivalPos="422.97" arrivalSpeed="5.56" duration="957.00" routeLength="12633.03" waitingTime="0.00" waitingCount="0" stopTime="0.00" timeLoss="84.63" rerouteNo="0" devices="tripinfo_bus_22:0.7" vType="bus" speedFactor="1.00" vaporized=""/>
    <tripinfo id="bus_43:0.6" depart="3600.00" departLane="1111008091_0" departPos="12.10" departSpeed="0.00" departDelay="0.00" arrival="5171.00" arrivalLane="528461109_0" arrivalPos="176.67" arrivalSpeed="5.20" duration="1571.00" routeLength="21752.29" waitingTime="0.00" waitingCount="0" stopTime="0.00" timeLoss="137.34" rerouteNo="0" devices="tripinfo_bus_43:0.6" vType="bus" speedFactor="1.00" vaporized=""/>
    <tripinfo id="bus_22:0.8" depart="4800.00" departLane="543768663_0" departPos="7.80" departSpeed="0.00" departDelay="0.00" arrival="5758.00" arrivalLane="245934570#2_0" arrivalPos="422.97" arrivalSpeed="5.38" duration="958.00" routeLength="12633.03" waitingTime="0.00" waitingCount="0" stopTime="0.00" timeLoss="84.83" rerouteNo="0" devices="tripinfo_bus_22:0.8" vType="bus" speedFactor="1.00" vaporized=""/>
    <tripinfo id="bus_43:0.7" depart="4200.00" departLane="1111008091_0" departPos="12.10" departSpeed="0.00" departDelay="0.00" arrival="5762.00" arrivalLane="528461109_0" arrivalPos="176.67" arrivalSpeed="5.26" duration="1562.00" routeLength="21752.29" waitingTime="0.00" waitingCount="0" stopTime="0.00" timeLoss="128.09" rerouteNo="0" devices="tripinfo_bus_43:0.7" vType="bus" speedFactor="1.00" vaporized=""/>
    <tripinfo id="bus_22:0.9" depart="5400.00" departLane="543768663_0" departPos="7.80" departSpeed="0.00" departDelay="0.00" arrival="6352.00" arrivalLane="245934570#2_0" arrivalPos="422.97" arrivalSpeed="5.03" duration="952.00" routeLength="12633.03" waitingTime="0.00" waitingCount="0" stopTime="0.00" timeLoss="79.26" rerouteNo="0" devices="tripinfo_bus_22:0.9" vType="bus" speedFactor="1.00" vaporized=""/>
    <tripinfo id="bus_43:0.8" depart="4800.00" departLane="1111008091_0" departPos="12.10" departSpeed="0.00" departDelay="0.00" arrival="6365.00" arrivalLane="528461109_0" arrivalPos="176.67" arrivalSpeed="5.05" duration="1565.00" routeLength="21752.29" waitingTime="0.00" waitingCount="0" stopTime="1.00" timeLoss="129.90" rerouteNo="0" devices="tripinfo_bus_43:0.8" vType="bus" speedFactor="1.00" vaporized=""/>
    <tripinfo id="bus_22:0.10" depart="6000.00" departLane="543768663_0" departPos="7.80" departSpeed="0.00" departDelay="0.00" arrival="6953.00" arrivalLane="245934570#2_0" arrivalPos="422.97" arrivalSpeed="5.50" duration="953.00" routeLength="12633.03" waitingTime="0.00" waitingCount="0" stopTime="0.00" timeLoss="80.20" rerouteNo="0" devices="tripinfo_bus_22:0.10" vType="bus" speedFactor="1.00" vaporized=""/>
    <tripinfo id="bus_43:0.9" depart="5400.00" departLane="1111008091_0" departPos="12.10" departSpeed="0.00" departDelay="0.00" arrival="6964.00" arrivalLane="528461109_0" arrivalPos="176.67" arrivalSpeed="5.20" duration="1564.00" routeLength="21752.29" waitingTime="0.00" waitingCount="0" stopTime="0.00" timeLoss="130.32" rerouteNo="0" devices="tripinfo_bus_43:0.9" vType="bus" speedFactor="1.00" vaporized=""/>
    <tripinfo id="bus_22:0.11" depart="6600.00" departLane="543768663_0" departPos="7.80" departSpeed="0.00" departDelay="0.00" arrival="7554.00" arrivalLane="245934570#2_0" arrivalPos="422.97" arrivalSpeed="5.08" duration="954.00" routeLength="12633.03" waitingTime="0.00" waitingCount="0" stopTime="0.00" timeLoss="80.65" rerouteNo="0" devices="tripinfo_bus_22:0.11" vType="bus" speedFactor="1.00" vaporized=""/>
    <tripinfo id="bus_43:0.10" depart="6000.00" departLane="1111008091_0" departPos="12.10" departSpeed="0.00" departDelay="0.00" arrival="7566.00" arrivalLane="528461109_0" arrivalPos="176.67" arrivalSpeed="5.04" duration="1566.00" routeLength="21752.29" waitingTime="0.00" waitingCount="0" stopTime="1.00" timeLoss="130.34" rerouteNo="0" devices="tripinfo_bus_43:0.10" vType="bus" speedFactor="1.00" vaporized=""/>
    <tripinfo id="bus_43:0.11" depart="6600.00" departLane="1111008091_0" departPos="12.10" departSpeed="0.00" departDelay="0.00" arrival="8165.00" arrivalLane="528461109_0" arrivalPos="176.67" arrivalSpeed="5.21" duration="1565.00" routeLength="21752.29" waitingTime="0.00" waitingCount="0" stopTime="0.00" timeLoss="130.63" rerouteNo="0" devices="tripinfo_bus_43:0.11" vType="bus" speedFactor="1.00" vaporized=""/>
    <tripinfo id="bus_22:1.0" depart="7980.00" departLane="543768663_0" departPos="7.80" departSpeed="0.00" departDelay="0.00" arrival="8934.00" arrivalLane="245934570#2_0" arrivalPos="422.97" arrivalSpeed="5.49" duration="954.00" routeLength="12633.03" waitingTime="0.00" waitingCount="0" stopTime="0.00" timeLoss="81.21" rerouteNo="0" devices="tripinfo_bus_22:1.0" vType="bus" speedFactor="1.00" vaporized=""/>
    <tripinfo id="bus_22:1.1" depart="8760.00" departLane="543768663_0" departPos="7.80" departSpeed="0.00" departDelay="0.00" arrival="9710.00" arrivalLane="245934570#2_0" arrivalPos="422.97" arrivalSpeed="5.50" duration="950.00" routeLength="12633.03" waitingTime="0.00" waitingCount="0" stopTime="0.00" timeLoss="77.61" rerouteNo="0" devices="tripinfo_bus_22:1.1" vType="bus" speedFactor="1.00" vaporized=""/>
    <tripinfo id="bus_43:1.0" depart="8100.00" departLane="1111008091_0" departPos="12.10" departSpeed="0.00" departDelay="0.00" arrival="10236.00" arrivalLane="528461109_0" arrivalPos="176.67" arrivalSpeed="5.44" duration="2136.00" routeLength="21752.29" waitingTime="566.00" waitingCount="2" stopTime="1.00" timeLoss="706.45" rerouteNo="0" devices="tripinfo_bus_43:1.0" vType="bus" speedFactor="1.00" vaporized=""/>
    <tripinfo id="bus_43:1.1" depart="9000.00" departLane="1111008091_0" departPos="12.10" departSpeed="0.00" departDelay="0.00" arrival="11445.00" arrivalLane="528461109_0" arrivalPos="176.67" arrivalSpeed="5.16" duration="2445.00" routeLength="21752.29" waitingTime="843.00" waitingCount="8" stopTime="0.00" timeLoss="1010.11" rerouteNo="0" devices="tripinfo_bus_43:1.1" vType="bus" speedFactor="1.00" vaporized=""/>
    <tripinfo id="bus_43:1.2" depart="9900.00" departLane="1111008091_0" departPos="12.10" departSpeed="0.00" departDelay="0.00" arrival="12393.00" arrivalLane="528461109_0" arrivalPos="176.67" arrivalSpeed="5.50" duration="2493.00" routeLength="21752.29" waitingTime="915.00" waitingCount="8" stopTime="0.00" timeLoss="1065.17" rerouteNo="0" devices="tripinfo_bus_43:1.2" vType="bus" speedFactor="1.00" vaporized=""/>
    <tripinfo id="bus_43:1.3" depart="10800.00" departLane="1111008091_0" departPos="12.10" departSpeed="0.00" departDelay="0.00" arrival="13831.00" arrivalLane="528461109_0" arrivalPos="176.67" arrivalSpeed="5.43" duration="3031.00" routeLength="21752.29" waitingTime="1431.00" waitingCount="14" stopTime="0.00" timeLoss="1608.55" rerouteNo="0" devices="tripinfo_bus_43:1.3" vType="bus" speedFactor="1.00" vaporized=""/>
    <tripinfo id="bus_43:1.4" depart="11700.00" departLane="1111008091_0" departPos="12.10" departSpeed="0.00" departDelay="0.00" arrival="14756.00" arrivalLane="528461109_0" arrivalPos="176.67" arrivalSpeed="5.07" duration="3056.00" routeLength="21752.29" waitingTime="1446.00" waitingCount="11" stopTime="0.00" timeLoss="1621.37" rerouteNo="0" devices="tripinfo_bus_43:1.4" vType="bus" speedFactor="1.00" vaporized=""/>
    <tripinfo id="bus_43:1.5" depart="12600.00" departLane="1111008091_0" departPos="12.10" departSpeed="0.00" departDelay="0.00" arrival="16260.00" arrivalLane="528461109_0" arrivalPos="176.67" arrivalSpeed="5.56" duration="3660.00" routeLength="21752.29" waitingTime="2004.00" waitingCount="17" stopTime="0.00" timeLoss="2199.04" rerouteNo="0" devices="tripinfo_bus_43:1.5" vType="bus" speedFactor="1.00" vaporized=""/>
    <personinfo id="410481815.43.13952" depart="13952.00" type="DEFAULT_PEDTYPE">
        <walk depart="13952.00" departPos="16.35" arrival="13953.00" arrivalPos="17.35" duration="1.00" routeLength="1.00" timeLoss="0.28" maxSpeed="1.39"/>
        <ride waitingTime="3143.00" vehicle="bus_43:1.6" depart="17096.00" arrival="17303.00" arrivalPos="176.67" duration="207.00" routeLength="2282.04" timeLoss="16.09"/>
    </personinfo>
    <personinfo id="410481815.43.15663" depart="15663.00" type="DEFAULT_PEDTYPE">
        <walk depart="15663.00" departPos="16.35" arrival="15664.00" arrivalPos="17.35" duration="1.00" routeLength="1.00" timeLoss="0.28" maxSpeed="1.39"/>
        <ride waitingTime="1432.00" vehicle="bus_43:1.6" depart="17096.00" arrival="17303.00" arrivalPos="176.67" duration="207.00" routeLength="2282.04" timeLoss="16.09"/>
    </personinfo>
    <tripinfo id="bus_43:1.6" depart="13500.00" departLane="1111008091_0" departPos="12.10" departSpeed="0.00" departDelay="0.00" arrival="17303.00" arrivalLane="528461109_0" arrivalPos="176.67" arrivalSpeed="5.26" duration="3803.00" routeLength="21752.29" waitingTime="2227.00" waitingCount="15" stopTime="1.00" timeLoss="2405.24" rerouteNo="0" devices="tripinfo_bus_43:1.6 person_bus_43:1.6" vType="bus" speedFactor="1.00" vaporized=""/>
    <tripinfo id="bus_43:1.7" depart="14400.00" departLane="1111008091_0" departPos="12.10" departSpeed="0.00" departDelay="0.00" arrival="18355.00" arrivalLane="528461109_0" arrivalPos="176.67" arrivalSpeed="5.03" duration="3955.00" routeLength="21752.29" waitingTime="2352.00" waitingCount="14" stopTime="0.00" timeLoss="2551.36" rerouteNo="0" devices="tripinfo_bus_43:1.7" vType="bus" speedFactor="1.00" vaporized=""/>
    <tripinfo id="bus_43:1.8" depart="15300.00" departLane="1111008091_0" departPos="12.10" departSpeed="0.00" departDelay="0.00" arrival="18673.00" arrivalLane="528461109_0" arrivalPos="176.67" arrivalSpeed="5.17" duration="3373.00" routeLength="21752.29" waitingTime="1774.00" waitingCount="13" stopTime="0.00" timeLoss="1957.95" rerouteNo="0" devices="tripinfo_bus_43:1.8" vType="bus" speedFactor="1.00" vaporized=""/>
    <tripinfo id="bus_43:1.9" depart="16200.00" departLane="1111008091_0" departPos="12.10" departSpeed="0.00" departDelay="0.00" arrival="20178.00" arrivalLane="528461109_0" arrivalPos="176.67" arrivalSpeed="5.25" duration="3978.00" routeLength="21752.29" waitingTime="2364.00" waitingCount="15" stopTime="1.00" timeLoss="2563.40" rerouteNo="0" devices="tripinfo_bus_43:1.9" vType="bus" speedFactor="1.00" vaporized=""/>
    <tripinfo id="bus_22:1.2" depart="18232.00" departLane="543768663_0" departPos="7.80" departSpeed="0.00" departDelay="8692.00" arrival="21590.00" arrivalLane="245934570#2_0" arrivalPos="422.97" arrivalSpeed="5.56" duration="3358.00" routeLength="12633.03" waitingTime="2353.00" waitingCount="14" stopTime="0.00" timeLoss="2492.65" rerouteNo="0" devices="tripinfo_bus_22:1.2" vType="bus" speedFactor="1.00" vaporized=""/>
    <tripinfo id="bus_22:1.3" depart="18237.00" departLane="543768663_0" departPos="7.80" departSpeed="0.00" departDelay="7917.00" arrival="21772.00" arrivalLane="245934570#2_0" arrivalPos="422.97" arrivalSpeed="5.40" duration="3535.00" routeLength="12633.03" waitingTime="2519.00" waitingCount="16" stopTime="0.00" timeLoss="2671.02" rerouteNo="0" devices="tripinfo_bus_22:1.3" vType="bus" speedFactor="1.00" vaporized=""/>
    <tripinfo id="bus_22:1.4" depart="18243.00" departLane="543768663_0" departPos="7.80" departSpeed="0.00" departDelay="7143.00" arrival="22329.00" arrivalLane="245934570#2_0" arrivalPos="422.97" arrivalSpeed="5.10" duration="4086.00" routeLength="12633.03" waitingTime="3070.00" waitingCount="18" stopTime="0.00" timeLoss="3243.58" rerouteNo="0" devices="tripinfo_bus_22:1.4" vType="bus" speedFactor="1.00" vaporized=""/>
    <tripinfo id="bus_22:1.5" depart="18249.00" departLane="543768663_0" departPos="7.80" departSpeed="0.00" departDelay="6369.00" arrival="22475.00" arrivalLane="245934570#2_0" arrivalPos="422.97" arrivalSpeed="5.39" duration="4226.00" routeLength="12633.03" waitingTime="3188.00" waitingCount="19" stopTime="0.00" timeLoss="3373.50" rerouteNo="0" devices="tripinfo_bus_22:1.5" vType="bus" speedFactor="1.00" vaporized=""/>
    <tripinfo id="bus_43:1.10" depart="17100.00" departLane="1111008091_0" departPos="12.10" departSpeed="0.00" departDelay="0.00" arrival="22709.00" arrivalLane="528461109_0" arrivalPos="176.67" arrivalSpeed="5.51" duration="5609.00" routeLength="21752.29" waitingTime="3921.00" waitingCount="25" stopTime="0.00" timeLoss="4185.67" rerouteNo="0" devices="tripinfo_bus_43:1.10" vType="bus" speedFactor="1.00" vaporized=""/>
    <tripinfo id="bus_43:1.11" depart="18000.00" departLane="1111008091_0" departPos="12.10" departSpeed="0.00" departDelay="0.00" arrival="22714.00" arrivalLane="528461109_0" arrivalPos="176.67" arrivalSpeed="5.38" duration="4714.00" routeLength="21752.29" waitingTime="3043.00" waitingCount="19" stopTime="0.00" timeLoss="3290.86" rerouteNo="0" devices="tripinfo_bus_43:1.11" vType="bus" speedFactor="1.00" vaporized=""/>
    <tripinfo id="bus_22:1.6" depart="18254.00" departLane="543768663_0" departPos="7.80" departSpeed="0.00" departDelay="5594.00" arrival="22896.00" arrivalLane="245934570#2_0" arrivalPos="422.97" arrivalSpeed="4.97" duration="4642.00" routeLength="12633.03" waitingTime="3563.00" waitingCount="24" stopTime="0.00" timeLoss="3783.31" rerouteNo="0" devices="tripinfo_bus_22:1.6" vType="bus" speedFactor="1.00" vaporized=""/>
    <tripinfo id="bus_22:1.7" depart="18260.00" departLane="543768663_0" departPos="7.80" departSpeed="0.00" departDelay="4820.00" arrival="23129.00" arrivalLane="245934570#2_0" arrivalPos="422.97" arrivalSpeed="5.17" duration="4869.00" routeLength="12633.03" waitingTime="3803.00" waitingCount="26" stopTime="0.00" timeLoss="4020.24" rerouteNo="0" devices="tripinfo_bus_22:1.7" vType="bus" speedFactor="1.00" vaporized=""/>
    <tripinfo id="bus_43:1.12" depart="18900.00" departLane="1111008091_0" departPos="12.10" departSpeed="0.00" departDelay="0.00" arrival="23286.00" arrivalLane="528461109_0" arrivalPos="176.67" arrivalSpeed="5.34" duration="4386.00" routeLength="21752.29" waitingTime="2731.00" waitingCount="21" stopTime="0.00" timeLoss="2956.94" rerouteNo="0" devices="tripinfo_bus_43:1.12" vType="bus" speedFactor="1.00" vaporized=""/>
    <tripinfo id="bus_22:1.8" depart="18266.00" departLane="543768663_0" departPos="7.80" departSpeed="0.00" departDelay="4046.00" arrival="23740.00" arrivalLane="245934570#2_0" arrivalPos="422.97" arrivalSpeed="5.19" duration="5474.00" routeLength="12633.03" waitingTime="4398.00" waitingCount="29" stopTime="0.00" timeLoss="4633.42" rerouteNo="0" devices="tripinfo_bus_22:1.8" vType="bus" speedFactor="1.00" vaporized=""/>
    <tripinfo id="bus_22:1.10" depart="18278.00" departLane="543768663_0" departPos="7.80" departSpeed="0.00" departDelay="2498.00" arrival="24063.00" arrivalLane="245934570#2_0" arrivalPos="422.97" arrivalSpeed="5.53" duration="5785.00" routeLength="12633.03" waitingTime="4668.00" waitingCount="27" stopTime="0.00" timeLoss="4933.49" rerouteNo="0" devices="tripinfo_bus_22:1.10" vType="bus" speedFactor="1.00" vaporized=""/>
    <tripinfo id="bus_43:1.13" depart="19800.00" departLane="1111008091_0" departPos="12.10" departSpeed="0.00" departDelay="0.00" arrival="24169.00" arrivalLane="528461109_0" arrivalPos="176.67" arrivalSpeed="5.51" duration="4369.00" routeLength="21752.29" waitingTime="2760.00" waitingCount="19" stopTime="0.00" timeLoss="2965.74" rerouteNo="0" devices="tripinfo_bus_43:1.13" vType="bus" speedFactor="1.00" vaporized=""/>
    <tripinfo id="bus_22:1.9" depart="18272.00" departLane="543768663_0" departPos="7.80" departSpeed="0.00" departDelay="3272.00" arrival="24202.00" arrivalLane="245934570#2_0" arrivalPos="422.97" arrivalSpeed="5.27" duration="5930.00" routeLength="12633.03" waitingTime="4828.00" waitingCount="29" stopTime="0.00" timeLoss="5093.36" rerouteNo="0" devices="tripinfo_bus_22:1.9" vType="bus" speedFactor="1.00" vaporized=""/>
    <tripinfo id="bus_43:1.14" depart="20700.00" departLane="1111008091_0" departPos="12.10" departSpeed="0.00" departDelay="0.00" arrival="24710.00" arrivalLane="528461109_0" arrivalPos="176.67" arrivalSpeed="5.51" duration="4010.00" routeLength="21752.29" waitingTime="2412.00" waitingCount="17" stopTime="0.00" timeLoss="2598.58" rerouteNo="0" devices="tripinfo_bus_43:1.14" vType="bus" speedFactor="1.00" vaporized=""/>
    <tripinfo id="bus_22:1.11" depart="18284.00" departLane="543768663_0" departPos="7.80" departSpeed="0.00" departDelay="1724.00" arrival="24809.00" arrivalLane="245934570#2_0" arrivalPos="422.97" arrivalSpeed="4.96" duration="6525.00" routeLength="12633.03" waitingTime="5389.00" waitingCount="28" stopTime="0.00" timeLoss="5669.04" rerouteNo="0" devices="tripinfo_bus_22:1.11" vType="bus" speedFactor="1.00" vaporized=""/>
    <tripinfo id="bus_22:1.12" depart="18290.00" departLane="543768663_0" departPos="7.80" departSpeed="0.00" departDelay="950.00" arrival="25126.00" arrivalLane="245934570#2_0" arrivalPos="422.97" arrivalSpeed="5.13" duration="6836.00" routeLength="12633.03" waitingTime="5673.00" waitingCount="34" stopTime="0.00" timeLoss="5980.29" rerouteNo="0" devices="tripinfo_bus_22:1.12" vType="bus" speedFactor="1.00" vaporized=""/>
    <tripinfo id="bus_22:1.13" depart="18296.00" departLane="543768663_0" departPos="7.80" departSpeed="0.00" departDelay="176.00" arrival="25447.00" arrivalLane="245934570#2_0" arrivalPos="422.97" arrivalSpeed="5.03" duration="7151.00" routeLength="12633.03" waitingTime="5944.00" waitingCount="34" stopTime="0.00" timeLoss="6286.61" rerouteNo="0" devices="tripinfo_bus_22:1.13" vType="bus" speedFactor="1.00" vaporized=""/>
    <tripinfo id="bus_43:1.15" depart="21600.00" departLane="1111008091_0" departPos="12.10" departSpeed="0.00" departDelay="0.00" arrival="26220.00" arrivalLane="528461109_0" arrivalPos="176.67" arrivalSpeed="5.50" duration="4620.00" routeLength="21752.29" waitingTime="3059.00" waitingCount="17" stopTime="1.00" timeLoss="3243.20" rerouteNo="0" devices="tripinfo_bus_43:1.15" vType="bus" speedFactor="1.00" vaporized=""/>
    <tripinfo id="bus_43:1.16" depart="22500.00" departLane="1111008091_0" departPos="12.10" departSpeed="0.00" departDelay="0.00" arrival="26536.00" arrivalLane="528461109_0" arrivalPos="176.67" arrivalSpeed="5.26" duration="4036.00" routeLength="21752.29" waitingTime="2400.00" waitingCount="16" stopTime="1.00" timeLoss="2618.63" rerouteNo="0" devices="tripinfo_bus_43:1.16" vType="bus" speedFactor="1.00" vaporized=""/>
    <tripinfo id="bus_43:1.17" depart="23400.00" departLane="1111008091_0" departPos="12.10" departSpeed="0.00" departDelay="0.00" arrival="27125.00" arrivalLane="528461109_0" arrivalPos="176.67" arrivalSpeed="5.48" duration="3725.00" routeLength="21752.29" waitingTime="2106.00" waitingCount="20" stopTime="0.00" timeLoss="2314.77" rerouteNo="0" devices="tripinfo_bus_43:1.17" vType="bus" speedFactor="1.00" vaporized=""/>
    <tripinfo id="bus_43:1.18" depart="24300.00" departLane="1111008091_0" departPos="12.10" departSpeed="0.00" departDelay="0.00" arrival="29237.00" arrivalLane="528461109_0" arrivalPos="176.67" arrivalSpeed="5.30" duration="4937.00" routeLength="21752.29" waitingTime="3292.00" waitingCount="23" stopTime="0.00" timeLoss="3523.81" rerouteNo="0" devices="tripinfo_bus_43:1.18" vType="bus" speedFactor="1.00" vaporized=""/>
    <tripinfo id="bus_43:1.19" depart="25200.00" departLane="1111008091_0" departPos="12.10" departSpeed="0.00" departDelay="0.00" arrival="29584.00" arrivalLane="528461109_0" arrivalPos="176.67" arrivalSpeed="5.18" duration="4384.00" routeLength="21752.29" waitingTime="2797.00" waitingCount="19" stopTime="1.00" timeLoss="3005.56" rerouteNo="0" devices="tripinfo_bus_43:1.19" vType="bus" speedFactor="1.00" vaporized=""/>
    <tripinfo id="bus_43:1.20" depart="26100.00" departLane="1111008091_0" departPos="12.10" departSpeed="0.00" departDelay="0.00" arrival="30929.00" arrivalLane="528461109_0" arrivalPos="176.67" arrivalSpeed="5.52" duration="4829.00" routeLength="21752.29" waitingTime="3202.00" waitingCount="21" stopTime="0.00" timeLoss="3420.10" rerouteNo="0" devices="tripinfo_bus_43:1.20" vType="bus" speedFactor="1.00" vaporized=""/>
    <tripinfo id="bus_43:1.21" depart="27000.00" departLane="1111008091_0" departPos="12.10" departSpeed="0.00" departDelay="0.00" arrival="32624.00" arrivalLane="528461109_0" arrivalPos="176.67" arrivalSpeed="5.48" duration="5624.00" routeLength="21752.29" waitingTime="3985.00" waitingCount="29" stopTime="1.00" timeLoss="4227.79" rerouteNo="0" devices="tripinfo_bus_43:1.21" vType="bus" speedFactor="1.00" vaporized=""/>
    <tripinfo id="bus_43:1.22" depart="27900.00" departLane="1111008091_0" departPos="12.10" departSpeed="0.00" departDelay="0.00" arrival="33159.00" arrivalLane="528461109_0" arrivalPos="176.67" arrivalSpeed="5.10" duration="5259.00" routeLength="21752.29" waitingTime="3583.00" waitingCount="27" stopTime="0.00" timeLoss="3857.80" rerouteNo="0" devices="tripinfo_bus_43:1.22" vType="bus" speedFactor="1.00" vaporized=""/>
    <tripinfo id="bus_43:1.23" depart="28800.00" departLane="1111008091_0" departPos="12.10" departSpeed="0.00" departDelay="0.00" arrival="33760.00" arrivalLane="528461109_0" arrivalPos="176.67" arrivalSpeed="5.15" duration="4960.00" routeLength="21752.29" waitingTime="3298.00" waitingCount="27" stopTime="0.00" timeLoss="3555.34" rerouteNo="0" devices="tripinfo_bus_43:1.23" vType="bus" speedFactor="1.00" vaporized=""/>
    <tripinfo id="bus_43:1.24" depart="29700.00" departLane="1111008091_0" departPos="12.10" departSpeed="0.00" departDelay="0.00" arrival="35537.00" arrivalLane="528461109_0" arrivalPos="176.67" arrivalSpeed="5.39" duration="5837.00" routeLength="21752.29" waitingTime="4160.00" waitingCount="25" stopTime="1.00" timeLoss="4412.94" rerouteNo="0" devices="tripinfo_bus_43:1.24" vType="bus" speedFactor="1.00" vaporized=""/>
    <tripinfo id="bus_43:1.25" depart="30600.00" departLane="1111008091_0" departPos="12.10" departSpeed="0.00" departDelay="0.00" arrival="36549.00" arrivalLane="528461109_0" arrivalPos="176.67" arrivalSpeed="5.08" duration="5949.00" routeLength="21752.29" waitingTime="4332.00" waitingCount="31" stopTime="1.00" timeLoss="4568.70" rerouteNo="0" devices="tripinfo_bus_43:1.25" vType="bus" speedFactor="1.00" vaporized=""/>
    <tripinfo id="bus_43:1.26" depart="31500.00" departLane="1111008091_0" departPos="12.10" departSpeed="0.00" departDelay="0.00" arrival="37068.00" arrivalLane="528461109_0" arrivalPos="176.67" arrivalSpeed="5.15" duration="5568.00" routeLength="21752.29" waitingTime="3945.00" waitingCount="27" stopTime="0.00" timeLoss="4192.07" rerouteNo="0" devices="tripinfo_bus_43:1.26" vType="bus" speedFactor="1.00" vaporized=""/>
    <tripinfo id="bus_43:1.27" depart="32400.00" departLane="1111008091_0" departPos="12.10" departSpeed="0.00" departDelay="0.00" arrival="37620.00" arrivalLane="528461109_0" arrivalPos="176.67" arrivalSpeed="5.18" duration="5220.00" routeLength="21752.29" waitingTime="3578.00" waitingCount="23" stopTime="1.00" timeLoss="3815.58" rerouteNo="0" devices="tripinfo_bus_43:1.27" vType="bus" speedFactor="1.00" vaporized=""/>
    <tripinfo id="bus_43:1.28" depart="33300.00" departLane="1111008091_0" departPos="12.10" departSpeed="0.00" departDelay="0.00" arrival="38636.00" arrivalLane="528461109_0" arrivalPos="176.67" arrivalSpeed="5.11" duration="5336.00" routeLength="21752.29" waitingTime="3709.00" waitingCount="25" stopTime="0.00" timeLoss="3944.69" rerouteNo="0" devices="tripinfo_bus_43:1.28" vType="bus" speedFactor="1.00" vaporized=""/>