<?xml version="1.0" encoding="UTF-8"?>

<!-- generated on 2024-04-09 21:21:32 by Eclipse SUMO GUI Version 1.14.1
<configuration xmlns:xsi="http://www.w3.org/2001/XMLSchema-instance" xsi:noNamespaceSchemaLocation="http://sumo.dlr.de/xsd/sumoConfiguration.xsd">

    <input>
        <net-file value="singapore/singapore.net.xml"/>
        <route-files value="singapore/busFlows.rou.xml"/>
        <additional-files value="singapore/busstops.xml"/>
    </input>

    <output>
        <tripinfo-output value="tripinfo.xml"/>
    </output>

    <processing>
        <no-internal-links value="true"/>
    </processing>

    <traci_server>
        <remote-port value="51304"/>
    </traci_server>

</configuration>
-->

<tripinfos xmlns:xsi="http://www.w3.org/2001/XMLSchema-instance" xsi:noNamespaceSchemaLocation="http://sumo.dlr.de/xsd/tripinfo_file.xsd">
    <personinfo id="410459897.22.672" depart="672.00" type="DEFAULT_PEDTYPE">
        <walk depart="672.00" departPos="23.17" arrival="673.00" arrivalPos="24.17" duration="1.00" routeLength="1.00" timeLoss="0.28" maxSpeed="1.39"/>
        <ride waitingTime="218.00" vehicle="bus_22:0.1" depart="891.00" arrival="1579.00" arrivalPos="22.46" duration="688.00" routeLength="2578.40" timeLoss="57.14"/>
    </personinfo>
    <personinfo id="1531005322.22.1034" depart="1034.00" type="DEFAULT_PEDTYPE">
        <walk depart="1034.00" departPos="12.13" arrival="1035.00" arrivalPos="13.13" duration="1.00" routeLength="1.00" timeLoss="0.28" maxSpeed="1.39"/>
        <ride waitingTime="230.00" vehicle="bus_22:0.0" depart="1265.00" arrival="1617.00" arrivalPos="19.17" duration="352.00" routeLength="1321.88" timeLoss="29.62"/>
    </personinfo>
    <personinfo id="410462293.43.629" depart="629.00" type="DEFAULT_PEDTYPE">
        <walk depart="629.00" departPos="10.48" arrival="630.00" arrivalPos="11.48" duration="1.00" routeLength="1.00" timeLoss="0.28" maxSpeed="1.39"/>
        <ride waitingTime="650.00" vehicle="bus_43:0.0" depart="1280.00" arrival="1681.00" arrivalPos="210.31" duration="401.00" routeLength="1478.49" timeLoss="34.44"/>
    </personinfo>
    <personinfo id="410474348.43.427" depart="427.00" type="DEFAULT_PEDTYPE">
        <walk depart="427.00" departPos="25.59" arrival="428.00" arrivalPos="26.59" duration="1.00" routeLength="1.00" timeLoss="0.28" maxSpeed="1.39"/>
        <ride waitingTime="219.00" vehicle="bus_43:0.0" depart="647.00" arrival="1805.00" arrivalPos="65.86" duration="1158.00" routeLength="4285.24" timeLoss="100.90"/>
    </personinfo>
    <personinfo id="410462103.22.1280" depart="1280.00" type="DEFAULT_PEDTYPE">
        <walk depart="1280.00" departPos="51.46" arrival="1281.00" arrivalPos="52.46" duration="1.00" routeLength="1.00" timeLoss="0.28" maxSpeed="1.39"/>
        <ride waitingTime="315.00" vehicle="bus_22:0.1" depart="1596.00" arrival="1874.00" arrivalPos="24.59" duration="278.00" routeLength="1042.27" timeLoss="23.81"/>
    </personinfo>
    <personinfo id="410475114.43.722" depart="722.00" type="DEFAULT_PEDTYPE">
        <walk depart="722.00" departPos="84.99" arrival="723.00" arrivalPos="85.99" duration="1.00" routeLength="1.00" timeLoss="0.28" maxSpeed="1.39"/>
        <ride waitingTime="453.00" vehicle="bus_22:0.0" depart="1176.00" arrival="1907.00" arrivalPos="103.67" duration="731.00" routeLength="2729.33" timeLoss="63.36"/>
    </personinfo>
    <personinfo id="410462101.22.857" depart="857.00" type="DEFAULT_PEDTYPE">
        <walk depart="857.00" departPos="11.46" arrival="858.00" arrivalPos="12.46" duration="1.00" routeLength="1.00" timeLoss="0.28" maxSpeed="1.39"/>
        <ride waitingTime="108.00" vehicle="bus_22:0.0" depart="966.00" arrival="2024.00" arrivalPos="263.30" duration="1058.00" routeLength="3911.63" timeLoss="95.01"/>
    </personinfo>
    <personinfo id="410462103.22.1326" depart="1326.00" type="DEFAULT_PEDTYPE">
        <walk depart="1326.00" departPos="51.46" arrival="1327.00" arrivalPos="52.46" duration="1.00" routeLength="1.00" timeLoss="0.28" maxSpeed="1.39"/>
        <ride waitingTime="269.00" vehicle="bus_22:0.1" depart="1596.00" arrival="2025.00" arrivalPos="13.83" duration="429.00" routeLength="1602.66" timeLoss="37.12"/>
    </personinfo>
    <personinfo id="1531005322.43.1336" depart="1336.00" type="DEFAULT_PEDTYPE">
        <walk depart="1336.00" departPos="12.13" arrival="1337.00" arrivalPos="13.13" duration="1.00" routeLength="1.00" timeLoss="0.28" maxSpeed="1.39"/>
        <ride waitingTime="538.00" vehicle="bus_22:0.1" depart="1875.00" arrival="2025.00" arrivalPos="13.83" duration="150.00" routeLength="560.46" timeLoss="13.32"/>
    </personinfo>
    <personinfo id="410460005.22.612" depart="612.00" type="DEFAULT_PEDTYPE">
        <walk depart="612.00" departPos="286.81" arrival="842.00" arrivalPos="0.00" duration="230.00" routeLength="286.81" timeLoss="23.50" maxSpeed="1.39"/>
        <ride waitingTime="360.00" vehicle="bus_22:0.2" depart="1202.00" arrival="2042.00" arrivalPos="18.98" duration="840.00" routeLength="3152.38" timeLoss="68.14"/>
    </personinfo>
    <personinfo id="410486991.43.1538" depart="1538.00" type="DEFAULT_PEDTYPE">
        <walk depart="1538.00" departPos="194.33" arrival="1539.00" arrivalPos="195.33" duration="1.00" routeLength="1.00" timeLoss="0.28" maxSpeed="1.39"/>
        <ride waitingTime="143.00" vehicle="bus_43:0.0" depart="1682.00" arrival="2109.00" arrivalPos="45.57" duration="427.00" routeLength="1547.74" timeLoss="42.55"/>
    </personinfo>
    <personinfo id="410475114.22.1171" depart="1171.00" type="DEFAULT_PEDTYPE">
        <walk depart="1171.00" departPos="84.99" arrival="1172.00" arrivalPos="85.99" duration="1.00" routeLength="1.00" timeLoss="0.28" maxSpeed="1.39"/>
        <ride waitingTime="4.00" vehicle="bus_22:0.0" depart="1176.00" arrival="2112.00" arrivalPos="12.10" duration="936.00" routeLength="3468.05" timeLoss="85.20"/>
    </personinfo>
    <personinfo id="410462293.43.984" depart="984.00" type="DEFAULT_PEDTYPE">
        <walk depart="984.00" departPos="10.48" arrival="985.00" arrivalPos="11.48" duration="1.00" routeLength="1.00" timeLoss="0.28" maxSpeed="1.39"/>
        <ride waitingTime="295.00" vehicle="bus_43:0.0" depart="1280.00" arrival="2166.00" arrivalPos="73.29" duration="886.00" routeLength="3228.11" timeLoss="83.73"/>
    </personinfo>
    <personinfo id="410486955.43.1200" depart="1200.00" type="DEFAULT_PEDTYPE">
        <walk depart="1200.00" departPos="49.88" arrival="1201.00" arrivalPos="50.88" duration="1.00" routeLength="1.00" timeLoss="0.28" maxSpeed="1.39"/>
        <ride waitingTime="606.00" vehicle="bus_43:0.0" depart="1807.00" arrival="2166.00" arrivalPos="73.29" duration="359.00" routeLength="1292.58" timeLoss="38.78"/>
    </personinfo>
    <personinfo id="410459897.22.1308" depart="1308.00" type="DEFAULT_PEDTYPE">
        <walk depart="1308.00" departPos="23.17" arrival="1309.00" arrivalPos="24.17" duration="1.00" routeLength="1.00" timeLoss="0.28" maxSpeed="1.39"/>
        <ride waitingTime="181.00" vehicle="bus_22:0.2" depart="1490.00" arrival="2189.00" arrivalPos="62.45" duration="699.00" routeLength="2618.40" timeLoss="58.39"/>
    </personinfo>
    <personinfo id="410475114.22.504" depart="504.00" type="DEFAULT_PEDTYPE">
        <walk depart="504.00" departPos="84.99" arrival="505.00" arrivalPos="85.99" duration="1.00" routeLength="1.00" timeLoss="0.28" maxSpeed="1.39"/>
        <ride waitingTime="671.00" vehicle="bus_22:0.0" depart="1176.00" arrival="2209.00" arrivalPos="34.17" duration="1033.00" routeLength="3823.15" timeLoss="94.60"/>
    </personinfo>
    <personinfo id="410482564.22.1295" depart="1295.00" type="DEFAULT_PEDTYPE">
        <walk depart="1295.00" departPos="87.68" arrival="1296.00" arrivalPos="88.68" duration="1.00" routeLength="1.00" timeLoss="0.28" maxSpeed="1.39"/>
        <ride waitingTime="613.00" vehicle="bus_22:0.0" depart="1909.00" arrival="2209.00" arrivalPos="34.17" duration="300.00" routeLength="1093.89" timeLoss="31.24"/>
    </personinfo>
    <personinfo id="410459897.22.828" depart="828.00" type="DEFAULT_PEDTYPE">
        <walk depart="828.00" departPos="23.17" arrival="829.00" arrivalPos="24.17" duration="1.00" routeLength="1.00" timeLoss="0.28" maxSpeed="1.39"/>
        <ride waitingTime="62.00" vehicle="bus_22:0.1" depart="891.00" arrival="2231.00" arrivalPos="19.14" duration="1340.00" routeLength="4982.36" timeLoss="116.85"/>
    </personinfo>
    <personinfo id="410462103.22.1261" depart="1261.00" type="DEFAULT_PEDTYPE">
        <walk depart="1261.00" departPos="51.46" arrival="1262.00" arrivalPos="52.46" duration="1.00" routeLength="1.00" timeLoss="0.28" maxSpeed="1.39"/>
        <ride waitingTime="334.00" vehicle="bus_22:0.1" depart="1596.00" arrival="2231.00" arrivalPos="19.14" duration="635.00" routeLength="2364.04" timeLoss="55.45"/>
    </personinfo>
    <personinfo id="410459901.22.220" depart="220.00" type="DEFAULT_PEDTYPE">
        <walk depart="220.00" departPos="553.15" arrival="663.00" arrivalPos="0.00" duration="443.00" routeLength="553.15" timeLoss="44.73" maxSpeed="1.39"/>
        <ride waitingTime="73.00" vehicle="bus_22:0.1" depart="736.00" arrival="2352.00" arrivalPos="88.08" duration="1616.00" routeLength="5999.84" timeLoss="141.71"/>
    </personinfo>
    <personinfo id="410462103.22.776" depart="776.00" type="DEFAULT_PEDTYPE">
        <walk depart="776.00" departPos="51.46" arrival="777.00" arrivalPos="52.46" duration="1.00" routeLength="1.00" timeLoss="0.28" maxSpeed="1.39"/>
        <ride waitingTime="205.00" vehicle="bus_22:0.0" depart="982.00" arrival="2354.00" arrivalPos="25.97" duration="1372.00" routeLength="5076.18" timeLoss="124.00"/>
    </personinfo>
    <personinfo id="1855320978.43.1244" depart="1244.00" type="DEFAULT_PEDTYPE">
        <walk depart="1244.00" departPos="29.59" arrival="1245.00" arrivalPos="30.59" duration="1.00" routeLength="1.00" timeLoss="0.28" maxSpeed="1.39"/>
        <ride waitingTime="865.00" vehicle="bus_43:0.0" depart="2110.00" arrival="2413.00" arrivalPos="95.95" duration="303.00" routeLength="1119.57" timeLoss="27.96"/>
    </personinfo>
    <personinfo id="410462101.22.960" depart="960.00" type="DEFAULT_PEDTYPE">
        <walk depart="960.00" departPos="11.46" arrival="961.00" arrivalPos="12.46" duration="1.00" routeLength="1.00" timeLoss="0.28" maxSpeed="1.39"/>
        <ride waitingTime="5.00" vehicle="bus_22:0.0" depart="966.00" arrival="2450.00" arrivalPos="200.19" duration="1484.00" routeLength="5464.54" timeLoss="137.29"/>
    </personinfo>
    <personinfo id="410462103.22.908" depart="908.00" type="DEFAULT_PEDTYPE">
        <walk depart="908.00" departPos="51.46" arrival="909.00" arrivalPos="52.46" duration="1.00" routeLength="1.00" timeLoss="0.28" maxSpeed="1.39"/>
        <ride waitingTime="73.00" vehicle="bus_22:0.0" depart="982.00" arrival="2450.00" arrivalPos="200.19" duration="1468.00" routeLength="5424.52" timeLoss="134.04"/>
    </personinfo>
    <personinfo id="410482564.22.28" depart="28.00" type="DEFAULT_PEDTYPE">
        <walk depart="28.00" departPos="87.68" arrival="29.00" arrivalPos="88.68" duration="1.00" routeLength="1.00" timeLoss="0.28" maxSpeed="1.39"/>
        <ride waitingTime="1880.00" vehicle="bus_22:0.0" depart="1909.00" arrival="2488.00" arrivalPos="328.24" duration="579.00" routeLength="2101.41" timeLoss="59.52"/>
    </personinfo>
    <personinfo id="410462103.22.1786" depart="1786.00" type="DEFAULT_PEDTYPE">
        <walk depart="1786.00" departPos="51.46" arrival="1787.00" arrivalPos="52.46" duration="1.00" routeLength="1.00" timeLoss="0.28" maxSpeed="1.39"/>
        <ride waitingTime="404.00" vehicle="bus_22:0.2" depart="2191.00" arrival="2555.00" arrivalPos="176.36" duration="364.00" routeLength="1357.75" timeLoss="31.85"/>
    </personinfo>
    <personinfo id="1849631273.43.1553" depart="1553.00" type="DEFAULT_PEDTYPE">
        <walk depart="1553.00" departPos="413.46" arrival="1883.00" arrivalPos="0.00" duration="330.00" routeLength="413.46" timeLoss="32.31" maxSpeed="1.39"/>
        <ride waitingTime="402.00" vehicle="bus_43:0.2" depart="2285.00" arrival="2585.00" arrivalPos="34.62" duration="300.00" routeLength="1126.57" timeLoss="24.25"/>
    </personinfo>
    <personinfo id="410462103.22.596" depart="596.00" type="DEFAULT_PEDTYPE">
        <walk depart="596.00" departPos="51.46" arrival="597.00" arrivalPos="52.46" duration="1.00" routeLength="1.00" timeLoss="0.28" maxSpeed="1.39"/>
        <ride waitingTime="385.00" vehicle="bus_22:0.0" depart="982.00" arrival="2612.00" arrivalPos="149.88" duration="1630.00" routeLength="6016.78" timeLoss="148.60"/>
    </personinfo>
    <personinfo id="410459897.22.1080" depart="1080.00" type="DEFAULT_PEDTYPE">
        <walk depart="1080.00" departPos="23.17" arrival="1081.00" arrivalPos="24.17" duration="1.00" routeLength="1.00" timeLoss="0.28" maxSpeed="1.39"/>
        <ride waitingTime="409.00" vehicle="bus_22:0.2" depart="1490.00" arrival="2625.00" arrivalPos="13.85" duration="1135.00" routeLength="4221.07" timeLoss="99.50"/>
    </personinfo>
    <personinfo id="410460005.22.314" depart="314.00" type="DEFAULT_PEDTYPE">
        <walk depart="314.00" departPos="286.81" arrival="542.00" arrivalPos="0.00" duration="228.00" routeLength="286.81" timeLoss="21.50" maxSpeed="1.39"/>
        <ride waitingTime="60.00" vehicle="bus_22:0.1" depart="602.00" arrival="2640.00" arrivalPos="263.27" duration="2038.00" routeLength="7565.55" timeLoss="178.86"/>
    </personinfo>
    <personinfo id="410482520.43.1931" depart="1931.00" type="DEFAULT_PEDTYPE">
        <walk depart="1931.00" departPos="2.85" arrival="1932.00" arrivalPos="3.85" duration="1.00" routeLength="1.00" timeLoss="0.28" maxSpeed="1.39"/>
        <ride waitingTime="95.00" vehicle="bus_22:0.1" depart="2027.00" arrival="2640.00" arrivalPos="263.27" duration="613.00" routeLength="2268.97" timeLoss="55.66"/>
    </personinfo>
    <personinfo id="410459897.22.1537" depart="1537.00" type="DEFAULT_PEDTYPE">
        <walk depart="1537.00" departPos="23.17" arrival="1538.00" arrivalPos="24.17" duration="1.00" routeLength="1.00" timeLoss="0.28" maxSpeed="1.39"/>
        <ride waitingTime="556.00" vehicle="bus_22:0.3" depart="2094.00" arrival="2647.00" arrivalPos="19.00" duration="553.00" routeLength="2076.80" timeLoss="45.48"/>
    </personinfo>
    <personinfo id="410462291.43.669" depart="669.00" type="DEFAULT_PEDTYPE">
        <walk depart="669.00" departPos="415.85" arrival="1001.00" arrivalPos="0.00" duration="332.00" routeLength="415.85" timeLoss="32.59" maxSpeed="1.39"/>
        <ride waitingTime="484.00" vehicle="bus_43:0.0" depart="1485.00" arrival="2654.00" arrivalPos="13.82" duration="1169.00" routeLength="4283.32" timeLoss="106.39"/>
    </personinfo>
    <personinfo id="410486991.43.443" depart="443.00" type="DEFAULT_PEDTYPE">
        <walk depart="443.00" departPos="194.33" arrival="444.00" arrivalPos="195.33" duration="1.00" routeLength="1.00" timeLoss="0.28" maxSpeed="1.39"/>
        <ride waitingTime="1238.00" vehicle="bus_43:0.0" depart="1682.00" arrival="2654.00" arrivalPos="13.82" duration="972.00" routeLength="3548.08" timeLoss="91.71"/>
    </personinfo>
    <personinfo id="410486955.43.198" depart="198.00" type="DEFAULT_PEDTYPE">
        <walk depart="198.00" departPos="49.88" arrival="199.00" arrivalPos="50.88" duration="1.00" routeLength="1.00" timeLoss="0.28" maxSpeed="1.39"/>
        <ride waitingTime="1608.00" vehicle="bus_43:0.0" depart="1807.00" arrival="2654.00" arrivalPos="13.82" duration="847.00" routeLength="3090.92" timeLoss="81.20"/>
    </personinfo>
    <personinfo id="410459904.22.2026" depart="2026.00" type="DEFAULT_PEDTYPE">
        <walk depart="2026.00" departPos="19.22" arrival="2027.00" arrivalPos="20.22" duration="1.00" routeLength="1.00" timeLoss="0.28" maxSpeed="1.39"/>
        <ride waitingTime="95.00" vehicle="bus_22:0.3" depart="2122.00" arrival="2800.00" arrivalPos="62.45" duration="678.00" routeLength="2526.87" timeLoss="57.74"/>
    </personinfo>
    <personinfo id="410459904.22.317" depart="317.00" type="DEFAULT_PEDTYPE">
        <walk depart="317.00" departPos="19.22" arrival="318.00" arrivalPos="20.22" duration="1.00" routeLength="1.00" timeLoss="0.28" maxSpeed="1.39"/>
        <ride waitingTime="601.00" vehicle="bus_22:0.1" depart="919.00" arrival="2820.00" arrivalPos="34.17" duration="1901.00" routeLength="7071.91" timeLoss="163.26"/>
    </personinfo>
    <personinfo id="410467153.22.1279" depart="1279.00" type="DEFAULT_PEDTYPE">
        <walk depart="1279.00" departPos="8.01" arrival="1280.00" arrivalPos="9.01" duration="1.00" routeLength="1.00" timeLoss="0.28" maxSpeed="1.39"/>
        <ride waitingTime="164.00" vehicle="bus_22:0.1" depart="1444.00" arrival="2820.00" arrivalPos="34.17" duration="1376.00" routeLength="5086.66" timeLoss="123.46"/>
    </personinfo>
    <personinfo id="410482570.22.2352" depart="2352.00" type="DEFAULT_PEDTYPE">
        <walk depart="2352.00" departPos="91.56" arrival="2353.00" arrivalPos="92.56" duration="1.00" routeLength="1.00" timeLoss="0.28" maxSpeed="1.39"/>
        <ride waitingTime="243.00" vehicle="bus_22:0.1" depart="2596.00" arrival="2820.00" arrivalPos="34.17" duration="224.00" routeLength="829.24" timeLoss="19.79"/>
    </personinfo>
    <personinfo id="410459901.22.1686" depart="1686.00" type="DEFAULT_PEDTYPE">
        <walk depart="1686.00" departPos="553.15" arrival="2129.00" arrivalPos="0.00" duration="443.00" routeLength="553.15" timeLoss="44.73" maxSpeed="1.39"/>
        <ride waitingTime="407.00" vehicle="bus_22:0.4" depart="2536.00" arrival="2836.00" arrivalPos="48.69" duration="300.00" routeLength="1100.61" timeLoss="28.60"/>
    </personinfo>
    <personinfo id="1847853709.43.1520" depart="1520.00" type="DEFAULT_PEDTYPE">
        <walk depart="1520.00" departPos="41.23" arrival="1521.00" arrivalPos="42.23" duration="1.00" routeLength="1.00" timeLoss="0.28" maxSpeed="1.39"/>
        <ride waitingTime="349.00" vehicle="bus_43:0.3" depart="1870.00" arrival="2893.00" arrivalPos="11.64" duration="1023.00" routeLength="3839.44" timeLoss="84.57"/>
    </personinfo>
    <personinfo id="410486991.43.1970" depart="1970.00" type="DEFAULT_PEDTYPE">
        <walk depart="1970.00" departPos="194.33" arrival="1971.00" arrivalPos="195.33" duration="1.00" routeLength="1.00" timeLoss="0.28" maxSpeed="1.39"/>
        <ride waitingTime="307.00" vehicle="bus_43:0.1" depart="2278.00" arrival="2906.00" arrivalPos="38.15" duration="628.00" routeLength="2307.49" timeLoss="59.24"/>
    </personinfo>
    <personinfo id="410464248.22.1885" depart="1885.00" type="DEFAULT_PEDTYPE">
        <walk depart="1885.00" departPos="23.64" arrival="1886.00" arrivalPos="24.64" duration="1.00" routeLength="1.00" timeLoss="0.28" maxSpeed="1.39"/>
        <ride waitingTime="846.00" vehicle="bus_22:0.0" depart="2732.00" arrival="2950.00" arrivalPos="37.69" duration="218.00" routeLength="785.67" timeLoss="20.39"/>
    </personinfo>
    <personinfo id="410462211.43.2519" depart="2519.00" type="DEFAULT_PEDTYPE">
        <walk depart="2519.00" departPos="18.63" arrival="2520.00" arrivalPos="19.63" duration="1.00" routeLength="1.00" timeLoss="0.28" maxSpeed="1.39"/>
        <ride waitingTime="67.00" vehicle="bus_43:0.2" depart="2587.00" arrival="2993.00" arrivalPos="65.88" duration="406.00" routeLength="1510.41" timeLoss="35.63"/>
    </personinfo>
    <personinfo id="410486991.43.2450" depart="2450.00" type="DEFAULT_PEDTYPE">
        <walk depart="2450.00" departPos="194.33" arrival="2451.00" arrivalPos="195.33" duration="1.00" routeLength="1.00" timeLoss="0.28" maxSpeed="1.39"/>
        <ride waitingTime="418.00" vehicle="bus_43:0.2" depart="2869.00" arrival="2993.00" arrivalPos="65.88" duration="124.00" routeLength="457.17" timeLoss="12.50"/>
    </personinfo>
    <personinfo id="410462103.22.2415" depart="2415.00" type="DEFAULT_PEDTYPE">
        <walk depart="2415.00" departPos="51.46" arrival="2416.00" arrivalPos="52.46" duration="1.00" routeLength="1.00" timeLoss="0.28" maxSpeed="1.39"/>
        <ride waitingTime="385.00" vehicle="bus_22:0.3" depart="2801.00" arrival="2994.00" arrivalPos="95.97" duration="193.00" routeLength="721.96" timeLoss="16.93"/>
    </personinfo>
    <personinfo id="1847853709.43.491" depart="491.00" type="DEFAULT_PEDTYPE">
        <walk depart="491.00" departPos="41.23" arrival="492.00" arrivalPos="42.23" duration="1.00" routeLength="1.00" timeLoss="0.28" maxSpeed="1.39"/>
        <ride waitingTime="179.00" vehicle="bus_43:0.1" depart="671.00" arrival="3006.00" arrivalPos="95.99" duration="2335.00" routeLength="8686.53" timeLoss="200.43"/>
    </personinfo>
    <personinfo id="410462291.43.1625" depart="1625.00" type="DEFAULT_PEDTYPE">
        <walk depart="1625.00" departPos="415.85" arrival="1958.00" arrivalPos="0.00" duration="333.00" routeLength="415.85" timeLoss="33.59" maxSpeed="1.39"/>
        <ride waitingTime="122.00" vehicle="bus_43:0.1" depart="2080.00" arrival="3006.00" arrivalPos="95.99" duration="926.00" routeLength="3402.53" timeLoss="87.16"/>
    </personinfo>
    <personinfo id="410462293.43.528" depart="528.00" type="DEFAULT_PEDTYPE">
        <walk depart="528.00" departPos="10.48" arrival="529.00" arrivalPos="11.48" duration="1.00" routeLength="1.00" timeLoss="0.28" maxSpeed="1.39"/>
        <ride waitingTime="751.00" vehicle="bus_43:0.0" depart="1280.00" arrival="3007.00" arrivalPos="164.75" duration="1727.00" routeLength="6304.01" timeLoss="162.59"/>
    </personinfo>
    <personinfo id="410486969.43.1712" depart="1712.00" type="DEFAULT_PEDTYPE">
        <walk depart="1712.00" departPos="0.12" arrival="1713.00" arrivalPos="1.12" duration="1.00" routeLength="1.00" timeLoss="0.28" maxSpeed="1.39"/>
        <ride waitingTime="278.00" vehicle="bus_43:0.0" depart="1991.00" arrival="3007.00" arrivalPos="164.75" duration="1016.00" routeLength="3710.42" timeLoss="97.11"/>
    </personinfo>
    <personinfo id="1531005322.43.1915" depart="1915.00" type="DEFAULT_PEDTYPE">
        <walk depart="1915.00" departPos="12.13" arrival="1916.00" arrivalPos="13.13" duration="1.00" routeLength="1.00" timeLoss="0.28" maxSpeed="1.39"/>
        <ride waitingTime="589.00" vehicle="bus_43:0.0" depart="2505.00" arrival="3007.00" arrivalPos="164.75" duration="502.00" routeLength="1837.95" timeLoss="48.76"/>
    </personinfo>
    <personinfo id="410462103.22.636" depart="636.00" type="DEFAULT_PEDTYPE">
        <walk depart="636.00" departPos="51.46" arrival="637.00" arrivalPos="52.46" duration="1.00" routeLength="1.00" timeLoss="0.28" maxSpeed="1.39"/>
        <ride waitingTime="345.00" vehicle="bus_22:0.0" depart="982.00" arrival="3081.00" arrivalPos="11.72" duration="2099.00" routeLength="7708.79" timeLoss="193.94"/>
    </personinfo>
    <personinfo id="410465916.22.844" depart="844.00" type="DEFAULT_PEDTYPE">
        <walk depart="844.00" departPos="28.40" arrival="845.00" arrivalPos="29.40" duration="1.00" routeLength="1.00" timeLoss="0.28" maxSpeed="1.39"/>
        <ride waitingTime="1994.00" vehicle="bus_22:0.0" depart="2839.00" arrival="3081.00" arrivalPos="11.72" duration="242.00" routeLength="870.38" timeLoss="21.73"/>
    </personinfo>
    <personinfo id="410465917.22.493" depart="493.00" type="DEFAULT_PEDTYPE">
        <walk depart="493.00" departPos="21.70" arrival="494.00" arrivalPos="22.70" duration="1.00" routeLength="1.00" timeLoss="0.28" maxSpeed="1.39"/>
        <ride waitingTime="2457.00" vehicle="bus_22:0.0" depart="2951.00" arrival="3082.00" arrivalPos="11.72" duration="131.00" routeLength="475.12" timeLoss="12.14"/>
    </personinfo>
    <personinfo id="410465917.22.2025" depart="2025.00" type="DEFAULT_PEDTYPE">
        <walk depart="2025.00" departPos="21.70" arrival="2026.00" arrivalPos="22.70" duration="1.00" routeLength="1.00" timeLoss="0.28" maxSpeed="1.39"/>
        <ride waitingTime="925.00" vehicle="bus_22:0.0" depart="2951.00" arrival="3082.00" arrivalPos="11.72" duration="131.00" routeLength="475.08" timeLoss="12.14"/>
    </personinfo>
    <personinfo id="410462291.43.1241" depart="1241.00" type="DEFAULT_PEDTYPE">
        <walk depart="1241.00" departPos="415.85" arrival="1572.00" arrivalPos="0.00" duration="331.00" routeLength="415.85" timeLoss="31.59" maxSpeed="1.39"/>
        <ride waitingTime="508.00" vehicle="bus_43:0.1" depart="2080.00" arrival="3095.00" arrivalPos="24.55" duration="1015.00" routeLength="3722.86" timeLoss="96.06"/>
    </personinfo>
    <personinfo id="4430976208.43.2177" depart="2177.00" type="DEFAULT_PEDTYPE">
        <walk depart="2177.00" departPos="18.61" arrival="2178.00" arrivalPos="19.61" duration="1.00" routeLength="1.00" timeLoss="0.28" maxSpeed="1.39"/>
        <ride waitingTime="338.00" vehicle="bus_43:0.1" depart="2516.00" arrival="3096.00" arrivalPos="24.55" duration="580.00" routeLength="2123.05" timeLoss="56.23"/>
    </personinfo>
    <personinfo id="1849631269.43.59" depart="59.00" type="DEFAULT_PEDTYPE">
        <walk depart="59.00" departPos="160.44" arrival="188.00" arrivalPos="0.00" duration="129.00" routeLength="160.44" timeLoss="13.48" maxSpeed="1.39"/>
        <ride waitingTime="631.00" vehicle="bus_43:0.0" depart="819.00" arrival="3162.00" arrivalPos="103.67" duration="2343.00" routeLength="8587.09" timeLoss="216.77"/>
    </personinfo>
    <personinfo id="4430976208.43.1643" depart="1643.00" type="DEFAULT_PEDTYPE">
        <walk depart="1643.00" departPos="18.61" arrival="1644.00" arrivalPos="19.61" duration="1.00" routeLength="1.00" timeLoss="0.28" maxSpeed="1.39"/>
        <ride waitingTime="276.00" vehicle="bus_43:0.0" depart="1920.00" arrival="3163.00" arrivalPos="103.67" duration="1243.00" routeLength="4532.11" timeLoss="119.72"/>
    </personinfo>
    <personinfo id="410462293.43.1664" depart="1664.00" type="DEFAULT_PEDTYPE">
        <walk depart="1664.00" departPos="10.48" arrival="1665.00" arrivalPos="11.48" duration="1.00" routeLength="1.00" timeLoss="0.28" maxSpeed="1.39"/>
        <ride waitingTime="211.00" vehicle="bus_43:0.1" depart="1876.00" arrival="3183.00" arrivalPos="176.36" duration="1307.00" routeLength="4781.55" timeLoss="124.86"/>
    </personinfo>
    <personinfo id="410486516.43.2241" depart="2241.00" type="DEFAULT_PEDTYPE">
        <walk depart="2241.00" departPos="57.30" arrival="2242.00" arrivalPos="58.30" duration="1.00" routeLength="1.00" timeLoss="0.28" maxSpeed="1.39"/>
        <ride waitingTime="513.00" vehicle="bus_43:0.1" depart="2755.00" arrival="3183.00" arrivalPos="176.36" duration="428.00" routeLength="1553.43" timeLoss="44.14"/>
    </personinfo>
    <personinfo id="410460005.22.380" depart="380.00" type="DEFAULT_PEDTYPE">
        <walk depart="380.00" departPos="286.81" arrival="608.00" arrivalPos="0.00" duration="228.00" routeLength="286.81" timeLoss="21.50" maxSpeed="1.39"/>
        <ride waitingTime="594.00" vehicle="bus_22:0.2" depart="1202.00" arrival="3185.00" arrivalPos="107.54" duration="1983.00" routeLength="7409.82" timeLoss="166.76"/>
    </personinfo>
    <personinfo id="410465917.22.380" depart="380.00" type="DEFAULT_PEDTYPE">
        <walk depart="380.00" departPos="21.70" arrival="381.00" arrivalPos="22.70" duration="1.00" routeLength="1.00" timeLoss="0.28" maxSpeed="1.39"/>
        <ride waitingTime="2570.00" vehicle="bus_22:0.0" depart="2951.00" arrival="3210.00" arrivalPos="12.28" duration="259.00" routeLength="933.87" timeLoss="25.25"/>
    </personinfo>
    <personinfo id="410465917.22.1446" depart="1446.00" type="DEFAULT_PEDTYPE">
        <walk depart="1446.00" departPos="21.70" arrival="1447.00" arrivalPos="22.70" duration="1.00" routeLength="1.00" timeLoss="0.28" maxSpeed="1.39"/>
        <ride waitingTime="1504.00" vehicle="bus_22:0.0" depart="2951.00" arrival="3211.00" arrivalPos="12.28" duration="260.00" routeLength="933.83" timeLoss="25.25"/>
    </personinfo>
    <personinfo id="410465915.22.266" depart="266.00" type="DEFAULT_PEDTYPE">
        <walk depart="266.00" departPos="138.08" arrival="377.00" arrivalPos="0.00" duration="111.00" routeLength="138.08" timeLoss="11.58" maxSpeed="1.39"/>
        <ride waitingTime="2707.00" vehicle="bus_22:0.0" depart="3084.00" arrival="3211.00" arrivalPos="12.28" duration="127.00" routeLength="458.79" timeLoss="13.11"/>
    </personinfo>
    <personinfo id="410465915.22.2179" depart="2179.00" type="DEFAULT_PEDTYPE">
        <walk depart="2179.00" departPos="138.08" arrival="2289.00" arrivalPos="0.00" duration="110.00" routeLength="138.08" timeLoss="10.58" maxSpeed="1.39"/>
        <ride waitingTime="795.00" vehicle="bus_22:0.0" depart="3084.00" arrival="3212.00" arrivalPos="12.28" duration="128.00" routeLength="458.75" timeLoss="13.11"/>
    </personinfo>
    <personinfo id="410480722.22.2862" depart="2862.00" type="DEFAULT_PEDTYPE">
        <walk depart="2862.00" departPos="184.20" arrival="2863.00" arrivalPos="185.20" duration="1.00" routeLength="1.00" timeLoss="0.28" maxSpeed="1.39"/>
        <ride waitingTime="196.00" vehicle="bus_22:0.1" depart="3059.00" arrival="3216.00" arrivalPos="149.87" duration="157.00" routeLength="592.21" timeLoss="12.57"/>
    </personinfo>
    <personinfo id="410467153.22.2054" depart="2054.00" type="DEFAULT_PEDTYPE">
        <walk depart="2054.00" departPos="8.01" arrival="2055.00" arrivalPos="9.01" duration="1.00" routeLength="1.00" timeLoss="0.28" maxSpeed="1.39"/>
        <ride waitingTime="594.00" vehicle="bus_22:0.3" depart="2649.00" arrival="3229.00" arrivalPos="13.82" duration="580.00" routeLength="2144.28" timeLoss="53.06"/>
    </personinfo>
