<?xml version="1.0" encoding="UTF-8"?>

<!-- generated on 2024-05-01 23:41:32 by Eclipse SUMO sumo Version 1.14.1
<configuration xmlns:xsi="http://www.w3.org/2001/XMLSchema-instance" xsi:noNamespaceSchemaLocation="http://sumo.dlr.de/xsd/sumoConfiguration.xsd">

    <input>
        <net-file value="singapore/sumo/singapore.net.xml"/>
        <route-files value="singapore/sumo/busFlows.rou.xml"/>
        <additional-files value="singapore/sumo/busstops.xml"/>
    </input>

    <output>
        <tripinfo-output value="tripinfo.xml"/>
    </output>

    <processing>
        <no-internal-links value="true"/>
    </processing>

    <traci_server>
        <remote-port value="59082"/>
    </traci_server>

</configuration>
-->

<tripinfos xmlns:xsi="http://www.w3.org/2001/XMLSchema-instance" xsi:noNamespaceSchemaLocation="http://sumo.dlr.de/xsd/tripinfo_file.xsd">
    <personinfo id="410460005.22.312" depart="312.00" type="DEFAULT_PEDTYPE">
        <walk depart="312.00" departPos="286.81" arrival="542.00" arrivalPos="0.00" duration="230.00" routeLength="286.81" timeLoss="23.50" maxSpeed="1.39"/>
        <ride waitingTime="60.00" vehicle="bus_22:0.2" depart="602.00" arrival="1046.00" arrivalPos="30.21" duration="444.00" routeLength="1167.12" timeLoss="28.36"/>
    </personinfo>
    <personinfo id="410459904.22.7" depart="7.00" type="DEFAULT_PEDTYPE">
        <walk depart="7.00" departPos="19.22" arrival="8.00" arrivalPos="20.22" duration="1.00" routeLength="1.00" timeLoss="0.28" maxSpeed="1.39"/>
        <ride waitingTime="304.00" vehicle="bus_22:0.0" depart="312.00" arrival="1205.00" arrivalPos="95.98" duration="893.00" routeLength="3248.78" timeLoss="71.65"/>
    </personinfo>
    <personinfo id="410462101.22.886" depart="886.00" type="DEFAULT_PEDTYPE">
        <walk depart="886.00" departPos="11.46" arrival="887.00" arrivalPos="12.46" duration="1.00" routeLength="1.00" timeLoss="0.28" maxSpeed="1.39"/>
        <ride waitingTime="93.00" vehicle="bus_22:0.0" depart="980.00" arrival="1714.00" arrivalPos="31.75" duration="734.00" routeLength="2203.10" timeLoss="54.71"/>
    </personinfo>
    <personinfo id="410462293.43.1423" depart="1423.00" type="DEFAULT_PEDTYPE">
        <walk depart="1423.00" departPos="10.48" arrival="1424.00" arrivalPos="11.48" duration="1.00" routeLength="1.00" timeLoss="0.28" maxSpeed="1.39"/>
        <ride waitingTime="166.00" vehicle="bus_43:0.1" depart="1590.00" arrival="1794.00" arrivalPos="10.15" duration="204.00" routeLength="747.23" timeLoss="20.77"/>
    </personinfo>
    <personinfo id="410462103.22.1316" depart="1316.00" type="DEFAULT_PEDTYPE">
        <walk depart="1316.00" departPos="51.46" arrival="1317.00" arrivalPos="52.46" duration="1.00" routeLength="1.00" timeLoss="0.28" maxSpeed="1.39"/>
        <ride waitingTime="57.00" vehicle="bus_22:0.1" depart="1374.00" arrival="1797.00" arrivalPos="13.84" duration="423.00" routeLength="1602.70" timeLoss="32.13"/>
    </personinfo>
    <personinfo id="410459897.22.1038" depart="1038.00" type="DEFAULT_PEDTYPE">
        <walk depart="1038.00" departPos="23.17" arrival="1039.00" arrivalPos="24.17" duration="1.00" routeLength="1.00" timeLoss="0.28" maxSpeed="1.39"/>
        <ride waitingTime="215.00" vehicle="bus_22:0.3" depart="1254.00" arrival="1803.00" arrivalPos="18.99" duration="549.00" routeLength="2076.84" timeLoss="42.47"/>
    </personinfo>
    <personinfo id="410462103.22.1048" depart="1048.00" type="DEFAULT_PEDTYPE">
        <walk depart="1048.00" departPos="51.46" arrival="1049.00" arrivalPos="52.46" duration="1.00" routeLength="1.00" timeLoss="0.28" maxSpeed="1.39"/>
        <ride waitingTime="325.00" vehicle="bus_22:0.1" depart="1374.00" arrival="1948.00" arrivalPos="31.74" duration="574.00" routeLength="2163.11" timeLoss="45.45"/>
    </personinfo>
    <personinfo id="410462266.43.1534" depart="1534.00" type="DEFAULT_PEDTYPE">
        <walk depart="1534.00" departPos="50.19" arrival="1535.00" arrivalPos="51.19" duration="1.00" routeLength="1.00" timeLoss="0.28" maxSpeed="1.39"/>
        <ride waitingTime="13.00" vehicle="bus_43:0.1" depart="1548.00" arrival="2020.00" arrivalPos="205.33" duration="472.00" routeLength="1587.01" timeLoss="43.98"/>
    </personinfo>
    <personinfo id="410459897.22.604" depart="604.00" type="DEFAULT_PEDTYPE">
        <walk depart="604.00" departPos="23.17" arrival="605.00" arrivalPos="24.17" duration="1.00" routeLength="1.00" timeLoss="0.28" maxSpeed="1.39"/>
        <ride waitingTime="415.00" vehicle="bus_22:0.2" depart="1020.00" arrival="2058.00" arrivalPos="95.99" duration="1038.00" routeLength="3340.32" timeLoss="72.31"/>
    </personinfo>
    <personinfo id="410462103.22.556" depart="556.00" type="DEFAULT_PEDTYPE">
        <walk depart="556.00" departPos="51.46" arrival="557.00" arrivalPos="52.46" duration="1.00" routeLength="1.00" timeLoss="0.28" maxSpeed="1.39"/>
        <ride waitingTime="456.00" vehicle="bus_22:0.0" depart="1013.00" arrival="2101.00" arrivalPos="98.68" duration="1088.00" routeLength="3446.29" timeLoss="80.49"/>
    </personinfo>
    <personinfo id="410460005.22.862" depart="862.00" type="DEFAULT_PEDTYPE">
        <walk depart="862.00" departPos="286.81" arrival="1091.00" arrivalPos="0.00" duration="229.00" routeLength="286.81" timeLoss="22.50" maxSpeed="1.39"/>
        <ride waitingTime="161.00" vehicle="bus_22:0.4" depart="1252.00" arrival="2114.00" arrivalPos="18.99" duration="862.00" routeLength="3152.39" timeLoss="70.15"/>
    </personinfo>
    <personinfo id="410462103.22.1805" depart="1805.00" type="DEFAULT_PEDTYPE">
        <walk depart="1805.00" departPos="51.46" arrival="1806.00" arrivalPos="52.46" duration="1.00" routeLength="1.00" timeLoss="0.28" maxSpeed="1.39"/>
        <ride waitingTime="59.00" vehicle="bus_22:0.2" depart="1865.00" arrival="2155.00" arrivalPos="24.58" duration="290.00" routeLength="1042.19" timeLoss="26.82"/>
    </personinfo>
