<?xml version="1.0" encoding="UTF-8"?>

<!-- generated on 2024-04-10 21:44:04 by Eclipse SUMO GUI Version 1.14.1
<configuration xmlns:xsi="http://www.w3.org/2001/XMLSchema-instance" xsi:noNamespaceSchemaLocation="http://sumo.dlr.de/xsd/sumoConfiguration.xsd">

    <input>
        <net-file value="singapore/singapore.net.xml"/>
        <route-files value="singapore/busFlows.rou.xml"/>
        <additional-files value="singapore/busstops.xml"/>
    </input>

    <output>
        <tripinfo-output value="tripinfo.xml"/>
    </output>

    <processing>
        <no-internal-links value="true"/>
    </processing>

    <traci_server>
        <remote-port value="59763"/>
    </traci_server>

</configuration>
-->

<tripinfos xmlns:xsi="http://www.w3.org/2001/XMLSchema-instance" xsi:noNamespaceSchemaLocation="http://sumo.dlr.de/xsd/tripinfo_file.xsd">
    <personinfo id="410459897.22.41" depart="41.00" type="DEFAULT_PEDTYPE">
        <walk depart="41.00" departPos="23.17" arrival="42.00" arrivalPos="24.17" duration="1.00" routeLength="1.00" timeLoss="0.28" maxSpeed="1.39"/>
        <ride waitingTime="246.00" vehicle="bus_22:0.0" depart="288.00" arrival="843.00" arrivalPos="19.00" duration="555.00" routeLength="2076.84" timeLoss="46.47"/>
    </personinfo>
    <personinfo id="1849631273.43.272" depart="272.00" type="DEFAULT_PEDTYPE">
        <walk depart="272.00" departPos="413.46" arrival="603.00" arrivalPos="0.00" duration="331.00" routeLength="413.46" timeLoss="33.31" maxSpeed="1.39"/>
        <ride waitingTime="486.00" vehicle="bus_43:0.0" depart="1089.00" arrival="1246.00" arrivalPos="61.19" duration="157.00" routeLength="588.03" timeLoss="13.60"/>
    </personinfo>
    <personinfo id="410462103.22.770" depart="770.00" type="DEFAULT_PEDTYPE">
        <walk depart="770.00" departPos="51.46" arrival="771.00" arrivalPos="52.46" duration="1.00" routeLength="1.00" timeLoss="0.28" maxSpeed="1.39"/>
        <ride waitingTime="222.00" vehicle="bus_22:0.0" depart="993.00" arrival="1422.00" arrivalPos="13.85" duration="429.00" routeLength="1602.67" timeLoss="36.13"/>
    </personinfo>
    <personinfo id="410460005.22.47" depart="47.00" type="DEFAULT_PEDTYPE">
        <walk depart="47.00" departPos="286.81" arrival="277.00" arrivalPos="0.00" duration="230.00" routeLength="286.81" timeLoss="23.50" maxSpeed="1.39"/>
        <ride waitingTime="325.00" vehicle="bus_22:0.1" depart="602.00" arrival="1442.00" arrivalPos="18.99" duration="840.00" routeLength="3152.39" timeLoss="69.15"/>
    </personinfo>
    <personinfo id="1849631269.43.72" depart="72.00" type="DEFAULT_PEDTYPE">
        <walk depart="72.00" departPos="160.44" arrival="201.00" arrivalPos="0.00" duration="129.00" routeLength="160.44" timeLoss="13.48" maxSpeed="1.39"/>
        <ride waitingTime="618.00" vehicle="bus_43:0.0" depart="819.00" arrival="1489.00" arrivalPos="10.16" duration="670.00" routeLength="2454.75" timeLoss="62.33"/>
    </personinfo>
    <personinfo id="410462293.43.68" depart="68.00" type="DEFAULT_PEDTYPE">
        <walk depart="68.00" departPos="10.48" arrival="69.00" arrivalPos="11.48" duration="1.00" routeLength="1.00" timeLoss="0.28" maxSpeed="1.39"/>
        <ride waitingTime="1214.00" vehicle="bus_43:0.0" depart="1283.00" arrival="1686.00" arrivalPos="205.31" duration="403.00" routeLength="1477.09" timeLoss="38.76"/>
    </personinfo>
    <personinfo id="410462103.22.1510" depart="1510.00" type="DEFAULT_PEDTYPE">
        <walk depart="1510.00" departPos="51.46" arrival="1511.00" arrivalPos="52.46" duration="1.00" routeLength="1.00" timeLoss="0.28" maxSpeed="1.39"/>
        <ride waitingTime="78.00" vehicle="bus_22:0.1" depart="1589.00" arrival="1870.00" arrivalPos="24.59" duration="281.00" routeLength="1042.25" timeLoss="25.82"/>
    </personinfo>
    <personinfo id="410459904.22.53" depart="53.00" type="DEFAULT_PEDTYPE">
        <walk depart="53.00" departPos="19.22" arrival="54.00" arrivalPos="20.22" duration="1.00" routeLength="1.00" timeLoss="0.28" maxSpeed="1.39"/>
        <ride waitingTime="263.00" vehicle="bus_22:0.0" depart="317.00" arrival="1910.00" arrivalPos="98.66" duration="1593.00" routeLength="5973.09" timeLoss="131.20"/>
    </personinfo>
    <personinfo id="410459904.22.97" depart="97.00" type="DEFAULT_PEDTYPE">
        <walk depart="97.00" departPos="19.22" arrival="98.00" arrivalPos="20.22" duration="1.00" routeLength="1.00" timeLoss="0.28" maxSpeed="1.39"/>
        <ride waitingTime="219.00" vehicle="bus_22:0.0" depart="317.00" arrival="1910.00" arrivalPos="98.66" duration="1593.00" routeLength="5973.09" timeLoss="131.20"/>
    </personinfo>
    <personinfo id="1849631273.43.393" depart="393.00" type="DEFAULT_PEDTYPE">
        <walk depart="393.00" departPos="413.46" arrival="723.00" arrivalPos="0.00" duration="330.00" routeLength="413.46" timeLoss="32.31" maxSpeed="1.39"/>
        <ride waitingTime="366.00" vehicle="bus_43:0.0" depart="1089.00" arrival="1925.00" arrivalPos="29.59" duration="836.00" routeLength="3041.30" timeLoss="83.28"/>
    </personinfo>
    <personinfo id="410486991.43.569" depart="569.00" type="DEFAULT_PEDTYPE">
        <walk depart="569.00" departPos="194.33" arrival="570.00" arrivalPos="195.33" duration="1.00" routeLength="1.00" timeLoss="0.28" maxSpeed="1.39"/>
        <ride waitingTime="1117.00" vehicle="bus_43:0.0" depart="1687.00" arrival="2178.00" arrivalPos="108.28" duration="491.00" routeLength="1791.54" timeLoss="49.09"/>
    </personinfo>
    <personinfo id="410459901.22.300" depart="300.00" type="DEFAULT_PEDTYPE">
        <walk depart="300.00" departPos="553.15" arrival="745.00" arrivalPos="0.00" duration="445.00" routeLength="553.15" timeLoss="46.73" maxSpeed="1.39"/>
        <ride waitingTime="590.00" vehicle="bus_22:0.2" depart="1335.00" arrival="2189.00" arrivalPos="62.44" duration="854.00" routeLength="3196.37" timeLoss="72.43"/>
    </personinfo>
    <personinfo id="410462103.22.1248" depart="1248.00" type="DEFAULT_PEDTYPE">
        <walk depart="1248.00" departPos="51.46" arrival="1249.00" arrivalPos="52.46" duration="1.00" routeLength="1.00" timeLoss="0.28" maxSpeed="1.39"/>
        <ride waitingTime="340.00" vehicle="bus_22:0.1" depart="1589.00" arrival="2224.00" arrivalPos="14.14" duration="635.00" routeLength="2359.03" timeLoss="56.68"/>
    </personinfo>
    <personinfo id="410482520.22.1903" depart="1903.00" type="DEFAULT_PEDTYPE">
        <walk depart="1903.00" departPos="2.85" arrival="1904.00" arrivalPos="3.85" duration="1.00" routeLength="1.00" timeLoss="0.28" maxSpeed="1.39"/>
        <ride waitingTime="118.00" vehicle="bus_22:0.1" depart="2022.00" arrival="2365.00" arrivalPos="159.78" duration="343.00" routeLength="1272.53" timeLoss="31.65"/>
    </personinfo>
    <personinfo id="410475114.22.35" depart="35.00" type="DEFAULT_PEDTYPE">
        <walk depart="35.00" departPos="84.99" arrival="36.00" arrivalPos="85.99" duration="1.00" routeLength="1.00" timeLoss="0.28" maxSpeed="1.39"/>
        <ride waitingTime="1149.00" vehicle="bus_22:0.0" depart="1185.00" arrival="2475.00" arrivalPos="323.23" duration="1290.00" routeLength="4825.75" timeLoss="106.06"/>
    </personinfo>
    <personinfo id="410482564.22.477" depart="477.00" type="DEFAULT_PEDTYPE">
        <walk depart="477.00" departPos="87.68" arrival="478.00" arrivalPos="88.68" duration="1.00" routeLength="1.00" timeLoss="0.28" maxSpeed="1.39"/>
        <ride waitingTime="1434.00" vehicle="bus_22:0.0" depart="1912.00" arrival="2475.00" arrivalPos="323.23" duration="563.00" routeLength="2101.42" timeLoss="47.50"/>
    </personinfo>
    <personinfo id="410486991.43.2156" depart="2156.00" type="DEFAULT_PEDTYPE">
        <walk depart="2156.00" departPos="194.33" arrival="2157.00" arrivalPos="195.33" duration="1.00" routeLength="1.00" timeLoss="0.28" maxSpeed="1.39"/>
        <ride waitingTime="113.00" vehicle="bus_43:0.1" depart="2270.00" arrival="2506.00" arrivalPos="29.61" duration="236.00" routeLength="866.39" timeLoss="22.71"/>
    </personinfo>
    <personinfo id="410486955.43.1988" depart="1988.00" type="DEFAULT_PEDTYPE">
        <walk depart="1988.00" departPos="49.88" arrival="1989.00" arrivalPos="50.88" duration="1.00" routeLength="1.00" timeLoss="0.28" maxSpeed="1.39"/>
        <ride waitingTime="407.00" vehicle="bus_43:0.1" depart="2396.00" arrival="2507.00" arrivalPos="29.61" duration="111.00" routeLength="407.44" timeLoss="10.64"/>
    </personinfo>
    <personinfo id="410482520.22.64" depart="64.00" type="DEFAULT_PEDTYPE">
        <walk depart="64.00" departPos="2.85" arrival="65.00" arrivalPos="3.85" duration="1.00" routeLength="1.00" timeLoss="0.28" maxSpeed="1.39"/>
        <ride waitingTime="1358.00" vehicle="bus_22:0.0" depart="1423.00" arrival="2600.00" arrivalPos="138.88" duration="1177.00" routeLength="4403.11" timeLoss="96.12"/>
    </personinfo>
    <personinfo id="1531005322.43.2464" depart="2464.00" type="DEFAULT_PEDTYPE">
        <walk depart="2464.00" departPos="12.13" arrival="2465.00" arrivalPos="13.13" duration="1.00" routeLength="1.00" timeLoss="0.28" maxSpeed="1.39"/>
        <ride waitingTime="74.00" vehicle="bus_22:0.2" depart="2539.00" arrival="2625.00" arrivalPos="176.36" duration="86.00" routeLength="315.56" timeLoss="9.04"/>
    </personinfo>
    <personinfo id="410459904.22.450" depart="450.00" type="DEFAULT_PEDTYPE">
        <walk depart="450.00" departPos="19.22" arrival="451.00" arrivalPos="20.22" duration="1.00" routeLength="1.00" timeLoss="0.28" maxSpeed="1.39"/>
        <ride waitingTime="461.00" vehicle="bus_22:0.1" depart="912.00" arrival="2632.00" arrivalPos="258.30" duration="1720.00" routeLength="6393.57" timeLoss="152.68"/>
    </personinfo>
    <personinfo id="1531005322.22.2222" depart="2222.00" type="DEFAULT_PEDTYPE">
        <walk depart="2222.00" departPos="12.13" arrival="2223.00" arrivalPos="13.13" duration="1.00" routeLength="1.00" timeLoss="0.28" maxSpeed="1.39"/>
        <ride waitingTime="316.00" vehicle="bus_22:0.2" depart="2539.00" arrival="2694.00" arrivalPos="13.84" duration="155.00" routeLength="560.51" timeLoss="17.30"/>
    </personinfo>
    <personinfo id="410486991.43.1873" depart="1873.00" type="DEFAULT_PEDTYPE">
        <walk depart="1873.00" departPos="194.33" arrival="1874.00" arrivalPos="195.33" duration="1.00" routeLength="1.00" timeLoss="0.28" maxSpeed="1.39"/>
        <ride waitingTime="396.00" vehicle="bus_43:0.1" depart="2270.00" arrival="2759.00" arrivalPos="108.28" duration="489.00" routeLength="1791.52" timeLoss="47.09"/>
    </personinfo>
    <personinfo id="410459904.22.2105" depart="2105.00" type="DEFAULT_PEDTYPE">
        <walk depart="2105.00" departPos="19.22" arrival="2106.00" arrivalPos="20.22" duration="1.00" routeLength="1.00" timeLoss="0.28" maxSpeed="1.39"/>
        <ride waitingTime="7.00" vehicle="bus_22:0.3" depart="2113.00" arrival="2779.00" arrivalPos="22.42" duration="666.00" routeLength="2486.91" timeLoss="56.49"/>
    </personinfo>
    <personinfo id="410462211.43.109" depart="109.00" type="DEFAULT_PEDTYPE">
        <walk depart="109.00" departPos="18.63" arrival="110.00" arrivalPos="19.63" duration="1.00" routeLength="1.00" timeLoss="0.28" maxSpeed="1.39"/>
        <ride waitingTime="1290.00" vehicle="bus_43:0.0" depart="1400.00" arrival="2779.00" arrivalPos="13.82" duration="1379.00" routeLength="4606.75" timeLoss="244.50"/>
    </personinfo>
    <personinfo id="410459904.22.542" depart="542.00" type="DEFAULT_PEDTYPE">
        <walk depart="542.00" departPos="19.22" arrival="543.00" arrivalPos="20.22" duration="1.00" routeLength="1.00" timeLoss="0.28" maxSpeed="1.39"/>
        <ride waitingTime="369.00" vehicle="bus_22:0.1" depart="912.00" arrival="2815.00" arrivalPos="29.17" duration="1903.00" routeLength="7067.01" timeLoss="170.43"/>
    </personinfo>
    <personinfo id="410480716.22.172" depart="172.00" type="DEFAULT_PEDTYPE">
        <walk depart="172.00" departPos="9.98" arrival="173.00" arrivalPos="10.98" duration="1.00" routeLength="1.00" timeLoss="0.28" maxSpeed="1.39"/>
        <ride waitingTime="2174.00" vehicle="bus_22:0.0" depart="2347.00" arrival="2830.00" arrivalPos="39.37" duration="483.00" routeLength="1762.17" timeLoss="48.26"/>
    </personinfo>
    <personinfo id="410480716.22.204" depart="204.00" type="DEFAULT_PEDTYPE">
        <walk depart="204.00" departPos="9.98" arrival="205.00" arrivalPos="10.98" duration="1.00" routeLength="1.00" timeLoss="0.28" maxSpeed="1.39"/>
        <ride waitingTime="2142.00" vehicle="bus_22:0.0" depart="2347.00" arrival="2830.00" arrivalPos="39.37" duration="483.00" routeLength="1762.17" timeLoss="48.26"/>
    </personinfo>
    <personinfo id="410486991.43.1825" depart="1825.00" type="DEFAULT_PEDTYPE">
        <walk depart="1825.00" departPos="194.33" arrival="1826.00" arrivalPos="195.33" duration="1.00" routeLength="1.00" timeLoss="0.28" maxSpeed="1.39"/>
        <ride waitingTime="444.00" vehicle="bus_43:0.1" depart="2270.00" arrival="2898.00" arrivalPos="33.15" duration="628.00" routeLength="2309.28" timeLoss="58.82"/>
    </personinfo>
    <personinfo id="410486969.43.2303" depart="2303.00" type="DEFAULT_PEDTYPE">
        <walk depart="2303.00" departPos="0.12" arrival="2304.00" arrivalPos="1.12" duration="1.00" routeLength="1.00" timeLoss="0.28" maxSpeed="1.39"/>
        <ride waitingTime="274.00" vehicle="bus_43:0.1" depart="2578.00" arrival="2898.00" arrivalPos="33.15" duration="320.00" routeLength="1192.31" timeLoss="28.23"/>
    </personinfo>
    <personinfo id="410471030.22.2152" depart="2152.00" type="DEFAULT_PEDTYPE">
        <walk depart="2152.00" departPos="18.18" arrival="2153.00" arrivalPos="19.18" duration="1.00" routeLength="1.00" timeLoss="0.28" maxSpeed="1.39"/>
        <ride waitingTime="49.00" vehicle="bus_22:0.0" depart="2202.00" arrival="2942.00" arrivalPos="32.70" duration="740.00" routeLength="2688.68" timeLoss="72.30"/>
    </personinfo>
    <personinfo id="410462211.43.2542" depart="2542.00" type="DEFAULT_PEDTYPE">
        <walk depart="2542.00" departPos="18.63" arrival="2543.00" arrivalPos="19.63" duration="1.00" routeLength="1.00" timeLoss="0.28" maxSpeed="1.39"/>
        <ride waitingTime="43.00" vehicle="bus_43:0.2" depart="2586.00" arrival="2996.00" arrivalPos="60.87" duration="410.00" routeLength="1510.80" timeLoss="37.53"/>
    </personinfo>
    <personinfo id="410459897.22.2489" depart="2489.00" type="DEFAULT_PEDTYPE">
        <walk depart="2489.00" departPos="23.17" arrival="2490.00" arrivalPos="24.17" duration="1.00" routeLength="1.00" timeLoss="0.28" maxSpeed="1.39"/>
        <ride waitingTime="198.00" vehicle="bus_22:0.4" depart="2688.00" arrival="3023.00" arrivalPos="26.15" duration="335.00" routeLength="1247.87" timeLoss="29.67"/>
    </personinfo>
    <personinfo id="410459651.22.1881" depart="1881.00" type="DEFAULT_PEDTYPE">
        <walk depart="1881.00" departPos="15.18" arrival="1882.00" arrivalPos="16.18" duration="1.00" routeLength="1.00" timeLoss="0.28" maxSpeed="1.39"/>
        <ride waitingTime="540.00" vehicle="bus_22:0.3" depart="2422.00" arrival="3071.00" arrivalPos="24.58" duration="649.00" routeLength="2412.73" timeLoss="57.59"/>
    </personinfo>
    <personinfo id="410483103.22.1327" depart="1327.00" type="DEFAULT_PEDTYPE">
        <walk depart="1327.00" departPos="165.36" arrival="1328.00" arrivalPos="166.36" duration="1.00" routeLength="1.00" timeLoss="0.28" maxSpeed="1.39"/>
        <ride waitingTime="28.00" vehicle="bus_22:0.0" depart="1356.00" arrival="3075.00" arrivalPos="10.72" duration="1719.00" routeLength="6350.06" timeLoss="151.31"/>
    </personinfo>
    <personinfo id="410464248.22.2439" depart="2439.00" type="DEFAULT_PEDTYPE">
        <walk depart="2439.00" departPos="23.64" arrival="2440.00" arrivalPos="24.64" duration="1.00" routeLength="1.00" timeLoss="0.28" maxSpeed="1.39"/>
        <ride waitingTime="284.00" vehicle="bus_22:0.0" depart="2724.00" arrival="3075.00" arrivalPos="10.72" duration="351.00" routeLength="1264.81" timeLoss="34.55"/>
    </personinfo>
    <personinfo id="410465917.22.2161" depart="2161.00" type="DEFAULT_PEDTYPE">
        <walk depart="2161.00" departPos="21.70" arrival="2162.00" arrivalPos="22.70" duration="1.00" routeLength="1.00" timeLoss="0.28" maxSpeed="1.39"/>
        <ride waitingTime="782.00" vehicle="bus_22:0.0" depart="2944.00" arrival="3076.00" arrivalPos="10.72" duration="132.00" routeLength="479.08" timeLoss="13.16"/>
    </personinfo>
    <personinfo id="410465917.22.2202" depart="2202.00" type="DEFAULT_PEDTYPE">
        <walk depart="2202.00" departPos="21.70" arrival="2203.00" arrivalPos="22.70" duration="1.00" routeLength="1.00" timeLoss="0.28" maxSpeed="1.39"/>
        <ride waitingTime="741.00" vehicle="bus_22:0.0" depart="2944.00" arrival="3076.00" arrivalPos="10.72" duration="132.00" routeLength="479.08" timeLoss="13.16"/>
    </personinfo>
    <personinfo id="410465917.22.2648" depart="2648.00" type="DEFAULT_PEDTYPE">
        <walk depart="2648.00" departPos="21.70" arrival="2649.00" arrivalPos="22.70" duration="1.00" routeLength="1.00" timeLoss="0.28" maxSpeed="1.39"/>
        <ride waitingTime="295.00" vehicle="bus_22:0.0" depart="2944.00" arrival="3077.00" arrivalPos="10.72" duration="133.00" routeLength="479.08" timeLoss="13.16"/>
    </personinfo>
    <personinfo id="4430976208.43.2016" depart="2016.00" type="DEFAULT_PEDTYPE">
        <walk depart="2016.00" departPos="18.61" arrival="2017.00" arrivalPos="19.61" duration="1.00" routeLength="1.00" timeLoss="0.28" maxSpeed="1.39"/>
        <ride waitingTime="491.00" vehicle="bus_43:0.1" depart="2508.00" arrival="3083.00" arrivalPos="24.58" duration="575.00" routeLength="2128.06" timeLoss="52.03"/>
    </personinfo>
    <personinfo id="410462103.22.2163" depart="2163.00" type="DEFAULT_PEDTYPE">
        <walk depart="2163.00" departPos="51.46" arrival="2164.00" arrivalPos="52.46" duration="1.00" routeLength="1.00" timeLoss="0.28" maxSpeed="1.39"/>
        <ride waitingTime="27.00" vehicle="bus_22:0.2" depart="2191.00" arrival="3089.00" arrivalPos="83.08" duration="898.00" routeLength="2798.52" timeLoss="67.46"/>
    </personinfo>
    <personinfo id="410486516.43.2044" depart="2044.00" type="DEFAULT_PEDTYPE">
        <walk depart="2044.00" departPos="97.30" arrival="2045.00" arrivalPos="98.30" duration="1.00" routeLength="1.00" timeLoss="0.28" maxSpeed="1.39"/>
        <ride waitingTime="134.00" vehicle="bus_43:0.0" depart="2179.00" arrival="3104.00" arrivalPos="83.09" duration="925.00" routeLength="2959.21" timeLoss="197.31"/>
    </personinfo>
    <personinfo id="410486955.43.1044" depart="1044.00" type="DEFAULT_PEDTYPE">
        <walk depart="1044.00" departPos="49.88" arrival="1045.00" arrivalPos="50.88" duration="1.00" routeLength="1.00" timeLoss="0.28" maxSpeed="1.39"/>
        <ride waitingTime="769.00" vehicle="bus_43:0.0" depart="1814.00" arrival="3128.00" arrivalPos="159.78" duration="1314.00" routeLength="4368.41" timeLoss="237.64"/>
    </personinfo>
    <personinfo id="410480724.22.1684" depart="1684.00" type="DEFAULT_PEDTYPE">
        <walk depart="1684.00" departPos="26.17" arrival="1685.00" arrivalPos="27.17" duration="1.00" routeLength="1.00" timeLoss="0.28" maxSpeed="1.39"/>
        <ride waitingTime="953.00" vehicle="bus_22:0.0" depart="2638.00" arrival="3201.00" arrivalPos="10.28" duration="563.00" routeLength="2034.25" timeLoss="54.89"/>
    </personinfo>
    <personinfo id="410464248.22.1445" depart="1445.00" type="DEFAULT_PEDTYPE">
        <walk depart="1445.00" departPos="23.64" arrival="1446.00" arrivalPos="24.64" duration="1.00" routeLength="1.00" timeLoss="0.28" maxSpeed="1.39"/>
        <ride waitingTime="1278.00" vehicle="bus_22:0.0" depart="2724.00" arrival="3202.00" arrivalPos="10.28" duration="478.00" routeLength="1722.56" timeLoss="45.90"/>
    </personinfo>
    <personinfo id="410465916.22.1010" depart="1010.00" type="DEFAULT_PEDTYPE">
        <walk depart="1010.00" departPos="28.40" arrival="1011.00" arrivalPos="29.40" duration="1.00" routeLength="1.00" timeLoss="0.28" maxSpeed="1.39"/>
        <ride waitingTime="1821.00" vehicle="bus_22:0.0" depart="2832.00" arrival="3202.00" arrivalPos="10.28" duration="370.00" routeLength="1332.21" timeLoss="35.10"/>
    </personinfo>
    <personinfo id="410465917.22.1896" depart="1896.00" type="DEFAULT_PEDTYPE">
        <walk depart="1896.00" departPos="21.70" arrival="1897.00" arrivalPos="22.70" duration="1.00" routeLength="1.00" timeLoss="0.28" maxSpeed="1.39"/>
        <ride waitingTime="1047.00" vehicle="bus_22:0.0" depart="2944.00" arrival="3203.00" arrivalPos="10.28" duration="259.00" routeLength="936.83" timeLoss="24.52"/>
    </personinfo>
    <personinfo id="410465917.22.2519" depart="2519.00" type="DEFAULT_PEDTYPE">
        <walk depart="2519.00" departPos="21.70" arrival="2520.00" arrivalPos="22.70" duration="1.00" routeLength="1.00" timeLoss="0.28" maxSpeed="1.39"/>
        <ride waitingTime="424.00" vehicle="bus_22:0.0" depart="2944.00" arrival="3203.00" arrivalPos="10.28" duration="259.00" routeLength="936.82" timeLoss="24.52"/>
    </personinfo>
    <personinfo id="410465915.22.170" depart="170.00" type="DEFAULT_PEDTYPE">
        <walk depart="170.00" departPos="138.08" arrival="280.00" arrivalPos="0.00" duration="110.00" routeLength="138.08" timeLoss="10.58" maxSpeed="1.39"/>
        <ride waitingTime="2798.00" vehicle="bus_22:0.0" depart="3078.00" arrival="3204.00" arrivalPos="10.28" duration="126.00" routeLength="457.78" timeLoss="11.36"/>
    </personinfo>
    <personinfo id="410482491.43.2010" depart="2010.00" type="DEFAULT_PEDTYPE">
        <walk depart="2010.00" departPos="72.10" arrival="2011.00" arrivalPos="73.10" duration="1.00" routeLength="1.00" timeLoss="0.28" maxSpeed="1.39"/>
        <ride waitingTime="1079.00" vehicle="bus_22:0.2" depart="3090.00" arrival="3262.00" arrivalPos="98.67" duration="172.00" routeLength="647.79" timeLoss="14.03"/>
    </personinfo>
    <personinfo id="410475114.22.1239" depart="1239.00" type="DEFAULT_PEDTYPE">
        <walk depart="1239.00" departPos="84.99" arrival="1240.00" arrivalPos="85.99" duration="1.00" routeLength="1.00" timeLoss="0.28" maxSpeed="1.39"/>
        <ride waitingTime="542.00" vehicle="bus_22:0.1" depart="1782.00" arrival="3319.00" arrivalPos="34.64" duration="1537.00" routeLength="5721.18" timeLoss="135.65"/>
    </personinfo>
    <personinfo id="410467153.22.1567" depart="1567.00" type="DEFAULT_PEDTYPE">
        <walk depart="1567.00" departPos="8.01" arrival="1568.00" arrivalPos="9.01" duration="1.00" routeLength="1.00" timeLoss="0.28" maxSpeed="1.39"/>
        <ride waitingTime="476.00" vehicle="bus_22:0.2" depart="2044.00" arrival="3337.00" arrivalPos="102.55" duration="1293.00" routeLength="4252.47" timeLoss="102.87"/>
    </personinfo>
    <personinfo id="410482520.43.2730" depart="2730.00" type="DEFAULT_PEDTYPE">
        <walk depart="2730.00" departPos="2.85" arrival="2731.00" arrivalPos="3.85" duration="1.00" routeLength="1.00" timeLoss="0.28" maxSpeed="1.39"/>
        <ride waitingTime="40.00" vehicle="bus_22:0.2" depart="2771.00" arrival="3382.00" arrivalPos="258.31" duration="611.00" routeLength="2263.96" timeLoss="54.86"/>
    </personinfo>
    <personinfo id="410459904.22.15" depart="15.00" type="DEFAULT_PEDTYPE">
        <walk depart="15.00" departPos="19.22" arrival="16.00" arrivalPos="20.22" duration="1.00" routeLength="1.00" timeLoss="0.28" maxSpeed="1.39"/>
        <ride waitingTime="301.00" vehicle="bus_22:0.0" depart="317.00" arrival="3402.00" arrivalPos="80.51" duration="3085.00" routeLength="11416.47" timeLoss="267.63"/>
    </personinfo>
    <personinfo id="410475114.22.184" depart="184.00" type="DEFAULT_PEDTYPE">
        <walk depart="184.00" departPos="84.99" arrival="185.00" arrivalPos="85.99" duration="1.00" routeLength="1.00" timeLoss="0.28" maxSpeed="1.39"/>
        <ride waitingTime="1000.00" vehicle="bus_22:0.0" depart="1185.00" arrival="3402.00" arrivalPos="80.51" duration="2217.00" routeLength="8167.76" timeLoss="194.98"/>
    </personinfo>
    <personinfo id="410465917.22.495" depart="495.00" type="DEFAULT_PEDTYPE">
        <walk depart="495.00" departPos="21.70" arrival="496.00" arrivalPos="22.70" duration="1.00" routeLength="1.00" timeLoss="0.28" maxSpeed="1.39"/>
        <ride waitingTime="2448.00" vehicle="bus_22:0.0" depart="2944.00" arrival="3403.00" arrivalPos="80.51" duration="459.00" routeLength="1660.90" timeLoss="41.92"/>
    </personinfo>
    <personinfo id="410465917.22.1810" depart="1810.00" type="DEFAULT_PEDTYPE">
        <walk depart="1810.00" departPos="21.70" arrival="1811.00" arrivalPos="22.70" duration="1.00" routeLength="1.00" timeLoss="0.28" maxSpeed="1.39"/>
        <ride waitingTime="1133.00" vehicle="bus_22:0.0" depart="2944.00" arrival="3403.00" arrivalPos="80.51" duration="459.00" routeLength="1660.90" timeLoss="41.92"/>
    </personinfo>
    <personinfo id="410465917.22.2332" depart="2332.00" type="DEFAULT_PEDTYPE">
        <walk depart="2332.00" departPos="21.70" arrival="2333.00" arrivalPos="22.70" duration="1.00" routeLength="1.00" timeLoss="0.28" maxSpeed="1.39"/>
        <ride waitingTime="611.00" vehicle="bus_22:0.0" depart="2944.00" arrival="3404.00" arrivalPos="80.51" duration="460.00" routeLength="1660.89" timeLoss="41.92"/>
    </personinfo>
    <personinfo id="410465915.22.1905" depart="1905.00" type="DEFAULT_PEDTYPE">
        <walk depart="1905.00" departPos="138.08" arrival="2016.00" arrivalPos="0.00" duration="111.00" routeLength="138.08" timeLoss="11.58" maxSpeed="1.39"/>
        <ride waitingTime="1062.00" vehicle="bus_22:0.0" depart="3078.00" arrival="3404.00" arrivalPos="80.51" duration="326.00" routeLength="1181.86" timeLoss="28.75"/>
    </personinfo>
    <personinfo id="410462762.22.119" depart="119.00" type="DEFAULT_PEDTYPE">
        <walk depart="119.00" departPos="652.84" arrival="641.00" arrivalPos="0.00" duration="522.00" routeLength="652.84" timeLoss="51.96" maxSpeed="1.39"/>
        <ride waitingTime="2564.00" vehicle="bus_22:0.0" depart="3205.00" arrival="3405.00" arrivalPos="80.51" duration="200.00" routeLength="724.08" timeLoss="17.40"/>
    </personinfo>
    <personinfo id="410462762.22.1841" depart="1841.00" type="DEFAULT_PEDTYPE">
        <walk depart="1841.00" departPos="652.84" arrival="2365.00" arrivalPos="0.00" duration="524.00" routeLength="652.84" timeLoss="53.96" maxSpeed="1.39"/>
        <ride waitingTime="840.00" vehicle="bus_22:0.0" depart="3205.00" arrival="3405.00" arrivalPos="80.51" duration="200.00" routeLength="724.08" timeLoss="17.40"/>
    </personinfo>
    <personinfo id="410459904.22.2885" depart="2885.00" type="DEFAULT_PEDTYPE">
        <walk depart="2885.00" departPos="19.22" arrival="2886.00" arrivalPos="20.22" duration="1.00" routeLength="1.00" timeLoss="0.28" maxSpeed="1.39"/>
        <ride waitingTime="437.00" vehicle="bus_22:0.5" depart="3323.00" arrival="3439.00" arrivalPos="48.69" duration="116.00" routeLength="431.11" timeLoss="10.88"/>
    </personinfo>
    <personinfo id="410462266.43.1597" depart="1597.00" type="DEFAULT_PEDTYPE">
        <walk depart="1597.00" departPos="50.19" arrival="1598.00" arrivalPos="51.19" duration="1.00" routeLength="1.00" timeLoss="0.28" maxSpeed="1.39"/>
        <ride waitingTime="247.00" vehicle="bus_43:0.1" depart="1845.00" arrival="3441.00" arrivalPos="14.16" duration="1596.00" routeLength="5898.18" timeLoss="143.53"/>
    </personinfo>
    <personinfo id="1531005322.22.2051" depart="2051.00" type="DEFAULT_PEDTYPE">
        <walk depart="2051.00" departPos="12.13" arrival="2052.00" arrivalPos="13.13" duration="1.00" routeLength="1.00" timeLoss="0.28" maxSpeed="1.39"/>
        <ride waitingTime="487.00" vehicle="bus_22:0.2" depart="2539.00" arrival="3471.00" arrivalPos="10.10" duration="932.00" routeLength="3145.81" timeLoss="81.79"/>
    </personinfo>
    <personinfo id="410462266.43.225" depart="225.00" type="DEFAULT_PEDTYPE">
        <walk depart="225.00" departPos="50.19" arrival="226.00" arrivalPos="51.19" duration="1.00" routeLength="1.00" timeLoss="0.28" maxSpeed="1.39"/>
        <ride waitingTime="1021.00" vehicle="bus_43:0.0" depart="1247.00" arrival="3485.00" arrivalPos="10.12" duration="2238.00" routeLength="7727.14" timeLoss="329.50"/>
    </personinfo>
    <personinfo id="410462291.43.987" depart="987.00" type="DEFAULT_PEDTYPE">
        <walk depart="987.00" departPos="415.85" arrival="1319.00" arrivalPos="0.00" duration="332.00" routeLength="415.85" timeLoss="32.59" maxSpeed="1.39"/>
        <ride waitingTime="171.00" vehicle="bus_43:0.0" depart="1490.00" arrival="3485.00" arrivalPos="10.12" duration="1995.00" routeLength="6870.07" timeLoss="302.51"/>
    </personinfo>
    <personinfo id="410486955.43.900" depart="900.00" type="DEFAULT_PEDTYPE">
        <walk depart="900.00" departPos="49.88" arrival="901.00" arrivalPos="50.88" duration="1.00" routeLength="1.00" timeLoss="0.28" maxSpeed="1.39"/>
        <ride waitingTime="913.00" vehicle="bus_43:0.0" depart="1814.00" arrival="3486.00" arrivalPos="10.12" duration="1672.00" routeLength="5681.22" timeLoss="271.46"/>
    </personinfo>
    <personinfo id="1849631269.43.2495" depart="2495.00" type="DEFAULT_PEDTYPE">
        <walk depart="2495.00" departPos="160.44" arrival="2625.00" arrivalPos="0.00" duration="130.00" routeLength="160.44" timeLoss="14.48" maxSpeed="1.39"/>
        <ride waitingTime="597.00" vehicle="bus_43:0.4" depart="3222.00" arrival="3495.00" arrivalPos="10.64" duration="273.00" routeLength="1009.74" timeLoss="24.76"/>
    </personinfo>
    <personinfo id="1849631269.43.3085" depart="3085.00" type="DEFAULT_PEDTYPE">
        <walk depart="3085.00" departPos="160.44" arrival="3212.00" arrivalPos="0.00" duration="127.00" routeLength="160.44" timeLoss="11.48" maxSpeed="1.39"/>
        <ride waitingTime="10.00" vehicle="bus_43:0.4" depart="3222.00" arrival="3495.00" arrivalPos="10.64" duration="273.00" routeLength="1009.71" timeLoss="24.76"/>
    </personinfo>