<?xml version="1.0" encoding="UTF-8"?>

<!-- generated on 2024-04-17 18:25:28 by Eclipse SUMO sumo Version 1.14.1
<configuration xmlns:xsi="http://www.w3.org/2001/XMLSchema-instance" xsi:noNamespaceSchemaLocation="http://sumo.dlr.de/xsd/sumoConfiguration.xsd">

    <input>
        <net-file value="singapore/singapore.net.xml"/>
        <route-files value="singapore/busFlows.rou.xml"/>
        <additional-files value="singapore/busstops.xml"/>
    </input>

    <output>
        <tripinfo-output value="tripinfo.xml"/>
    </output>

    <processing>
        <no-internal-links value="true"/>
    </processing>

    <traci_server>
        <remote-port value="53754"/>
    </traci_server>

</configuration>
-->

<tripinfos xmlns:xsi="http://www.w3.org/2001/XMLSchema-instance" xsi:noNamespaceSchemaLocation="http://sumo.dlr.de/xsd/tripinfo_file.xsd">
    <personinfo id="410459897.22.691" depart="691.00" type="DEFAULT_PEDTYPE">
        <walk depart="691.00" departPos="23.17" arrival="692.00" arrivalPos="24.17" duration="1.00" routeLength="1.00" timeLoss="0.28" maxSpeed="1.39"/>
        <ride waitingTime="201.00" vehicle="bus_22:0.1" depart="893.00" arrival="920.00" arrivalPos="30.20" duration="27.00" routeLength="91.51" timeLoss="4.69"/>
    </personinfo>
    <personinfo id="410462103.22.102" depart="102.00" type="DEFAULT_PEDTYPE">
        <walk depart="102.00" departPos="51.46" arrival="103.00" arrivalPos="52.46" duration="1.00" routeLength="1.00" timeLoss="0.28" maxSpeed="1.39"/>
        <ride waitingTime="877.00" vehicle="bus_22:0.0" depart="980.00" arrival="1175.00" arrivalPos="95.99" duration="195.00" routeLength="721.94" timeLoss="18.93"/>
    </personinfo>
    <personinfo id="410460005.22.155" depart="155.00" type="DEFAULT_PEDTYPE">
        <walk depart="155.00" departPos="286.81" arrival="384.00" arrivalPos="0.00" duration="229.00" routeLength="286.81" timeLoss="22.50" maxSpeed="1.39"/>
        <ride waitingTime="218.00" vehicle="bus_22:0.1" depart="602.00" arrival="1229.00" arrivalPos="26.15" duration="627.00" routeLength="2323.45" timeLoss="57.34"/>
    </personinfo>
    <personinfo id="410462103.22.626" depart="626.00" type="DEFAULT_PEDTYPE">
        <walk depart="626.00" departPos="51.46" arrival="627.00" arrivalPos="52.46" duration="1.00" routeLength="1.00" timeLoss="0.28" maxSpeed="1.39"/>
        <ride waitingTime="353.00" vehicle="bus_22:0.0" depart="980.00" arrival="1421.00" arrivalPos="13.85" duration="441.00" routeLength="1602.69" timeLoss="42.12"/>
    </personinfo>
    <personinfo id="410459904.22.759" depart="759.00" type="DEFAULT_PEDTYPE">
        <walk depart="759.00" departPos="19.22" arrival="760.00" arrivalPos="20.22" duration="1.00" routeLength="1.00" timeLoss="0.28" maxSpeed="1.39"/>
        <ride waitingTime="161.00" vehicle="bus_22:0.1" depart="921.00" arrival="1607.00" arrivalPos="62.43" duration="686.00" routeLength="2526.91" timeLoss="54.72"/>
    </personinfo>
    <personinfo id="1847853709.43.1817" depart="1817.00" type="DEFAULT_PEDTYPE">
        <walk depart="1817.00" departPos="16.23" arrival="1818.00" arrivalPos="17.23" duration="1.00" routeLength="1.00" timeLoss="0.28" maxSpeed="1.39"/>
        <ride waitingTime="45.00" vehicle="bus_43:0.3" depart="1863.00" arrival="1888.00" arrivalPos="112.22" duration="25.00" routeLength="85.02" timeLoss="4.27"/>
    </personinfo>
    <personinfo id="410459901.22.116" depart="116.00" type="DEFAULT_PEDTYPE">
        <walk depart="116.00" departPos="553.15" arrival="560.00" arrivalPos="0.00" duration="444.00" routeLength="553.15" timeLoss="45.73" maxSpeed="1.39"/>
        <ride waitingTime="177.00" vehicle="bus_22:0.1" depart="737.00" arrival="1969.00" arrivalPos="176.36" duration="1232.00" routeLength="4554.13" timeLoss="103.29"/>
    </personinfo>
    <personinfo id="410462103.22.1063" depart="1063.00" type="DEFAULT_PEDTYPE">
        <walk depart="1063.00" departPos="51.46" arrival="1064.00" arrivalPos="52.46" duration="1.00" routeLength="1.00" timeLoss="0.28" maxSpeed="1.39"/>
        <ride waitingTime="544.00" vehicle="bus_22:0.1" depart="1608.00" arrival="2036.00" arrivalPos="13.84" duration="428.00" routeLength="1602.74" timeLoss="36.11"/>
    </personinfo>
    <personinfo id="410482568.22.922" depart="922.00" type="DEFAULT_PEDTYPE">
        <walk depart="922.00" departPos="3.17" arrival="923.00" arrivalPos="4.17" duration="1.00" routeLength="1.00" timeLoss="0.28" maxSpeed="1.39"/>
        <ride waitingTime="718.00" vehicle="bus_22:0.0" depart="1641.00" arrival="2068.00" arrivalPos="102.56" duration="427.00" routeLength="1351.89" timeLoss="32.29"/>
    </personinfo>
    <personinfo id="410482570.43.1517" depart="1517.00" type="DEFAULT_PEDTYPE">
        <walk depart="1517.00" departPos="91.56" arrival="1518.00" arrivalPos="92.56" duration="1.00" routeLength="1.00" timeLoss="0.28" maxSpeed="1.39"/>
        <ride waitingTime="598.00" vehicle="bus_22:0.0" depart="2116.00" arrival="2244.00" arrivalPos="10.12" duration="128.00" routeLength="477.15" timeLoss="11.65"/>
    </personinfo>
    <personinfo id="1847853709.43.1652" depart="1652.00" type="DEFAULT_PEDTYPE">
        <walk depart="1652.00" departPos="16.23" arrival="1653.00" arrivalPos="17.23" duration="1.00" routeLength="1.00" timeLoss="0.28" maxSpeed="1.39"/>
        <ride waitingTime="210.00" vehicle="bus_43:0.3" depart="1863.00" arrival="2395.00" arrivalPos="47.20" duration="532.00" routeLength="1999.39" timeLoss="43.36"/>
    </personinfo>
    <personinfo id="410462293.43.1511" depart="1511.00" type="DEFAULT_PEDTYPE">
        <walk depart="1511.00" departPos="10.48" arrival="1512.00" arrivalPos="11.48" duration="1.00" routeLength="1.00" timeLoss="0.28" maxSpeed="1.39"/>
        <ride waitingTime="33.00" vehicle="bus_43:0.0" depart="1545.00" arrival="2546.00" arrivalPos="29.61" duration="1001.00" routeLength="2343.47" timeLoss="61.47"/>
    </personinfo>
    <personinfo id="410482564.22.1752" depart="1752.00" type="DEFAULT_PEDTYPE">
        <walk depart="1752.00" departPos="87.68" arrival="1753.00" arrivalPos="88.68" duration="1.00" routeLength="1.00" timeLoss="0.28" maxSpeed="1.39"/>
        <ride waitingTime="241.00" vehicle="bus_22:0.0" depart="1994.00" arrival="2589.00" arrivalPos="195.20" duration="595.00" routeLength="1973.37" timeLoss="55.74"/>
    </personinfo>
    <personinfo id="1849631269.43.1904" depart="1904.00" type="DEFAULT_PEDTYPE">
        <walk depart="1904.00" departPos="160.44" arrival="2033.00" arrivalPos="0.00" duration="129.00" routeLength="160.44" timeLoss="13.48" maxSpeed="1.39"/>
        <ride waitingTime="107.00" vehicle="bus_43:0.2" depart="2140.00" arrival="2597.00" arrivalPos="21.48" duration="457.00" routeLength="1707.54" timeLoss="39.54"/>
    </personinfo>
    <personinfo id="410480716.22.585" depart="585.00" type="DEFAULT_PEDTYPE">
        <walk depart="585.00" departPos="9.98" arrival="586.00" arrivalPos="10.98" duration="1.00" routeLength="1.00" timeLoss="0.28" maxSpeed="1.39"/>
        <ride waitingTime="1908.00" vehicle="bus_22:0.0" depart="2494.00" arrival="2626.00" arrivalPos="323.20" duration="132.00" routeLength="476.36" timeLoss="14.84"/>
    </personinfo>
    <personinfo id="410483103.43.1309" depart="1309.00" type="DEFAULT_PEDTYPE">
        <walk depart="1309.00" departPos="165.36" arrival="1310.00" arrivalPos="166.36" duration="1.00" routeLength="1.00" timeLoss="0.28" maxSpeed="1.39"/>
        <ride waitingTime="660.00" vehicle="bus_22:0.1" depart="1970.00" arrival="2635.00" arrivalPos="102.56" duration="665.00" routeLength="2353.15" timeLoss="51.07"/>
    </personinfo>
    <personinfo id="410482520.43.1847" depart="1847.00" type="DEFAULT_PEDTYPE">
        <walk depart="1847.00" departPos="2.85" arrival="1848.00" arrivalPos="3.85" duration="1.00" routeLength="1.00" timeLoss="0.28" maxSpeed="1.39"/>
        <ride waitingTime="228.00" vehicle="bus_22:0.1" depart="2076.00" arrival="2681.00" arrivalPos="258.30" duration="605.00" routeLength="2263.97" timeLoss="51.82"/>
    </personinfo>
    <personinfo id="410459904.22.957" depart="957.00" type="DEFAULT_PEDTYPE">
        <walk depart="957.00" departPos="19.22" arrival="958.00" arrivalPos="20.22" duration="1.00" routeLength="1.00" timeLoss="0.28" maxSpeed="1.39"/>
        <ride waitingTime="559.00" vehicle="bus_22:0.2" depart="1517.00" arrival="2702.00" arrivalPos="13.83" duration="1185.00" routeLength="4129.50" timeLoss="95.85"/>
    </personinfo>
    <personinfo id="410459651.22.1817" depart="1817.00" type="DEFAULT_PEDTYPE">
        <walk depart="1817.00" departPos="15.18" arrival="1818.00" arrivalPos="16.18" duration="1.00" routeLength="1.00" timeLoss="0.28" maxSpeed="1.39"/>
        <ride waitingTime="7.00" vehicle="bus_22:0.2" depart="1825.00" arrival="2702.00" arrivalPos="13.83" duration="877.00" routeLength="2973.15" timeLoss="70.89"/>
    </personinfo>
    <personinfo id="410486991.43.914" depart="914.00" type="DEFAULT_PEDTYPE">
        <walk depart="914.00" departPos="194.33" arrival="915.00" arrivalPos="195.33" duration="1.00" routeLength="1.00" timeLoss="0.28" maxSpeed="1.39"/>
        <ride waitingTime="1305.00" vehicle="bus_43:0.0" depart="2220.00" arrival="2708.00" arrivalPos="11.12" duration="488.00" routeLength="1117.03" timeLoss="31.58"/>
    </personinfo>
    <personinfo id="410486991.43.1997" depart="1997.00" type="DEFAULT_PEDTYPE">
        <walk depart="1997.00" departPos="194.33" arrival="1998.00" arrivalPos="195.33" duration="1.00" routeLength="1.00" timeLoss="0.28" maxSpeed="1.39"/>
        <ride waitingTime="222.00" vehicle="bus_43:0.0" depart="2220.00" arrival="2708.00" arrivalPos="11.12" duration="488.00" routeLength="1116.99" timeLoss="31.58"/>
    </personinfo>
    <personinfo id="410482570.22.1847" depart="1847.00" type="DEFAULT_PEDTYPE">
        <walk depart="1847.00" departPos="91.56" arrival="1848.00" arrivalPos="92.56" duration="1.00" routeLength="1.00" timeLoss="0.28" maxSpeed="1.39"/>
        <ride waitingTime="268.00" vehicle="bus_22:0.0" depart="2116.00" arrival="2752.00" arrivalPos="138.88" duration="636.00" routeLength="2294.93" timeLoss="64.32"/>
    </personinfo>
    <personinfo id="410471030.22.1868" depart="1868.00" type="DEFAULT_PEDTYPE">
        <walk depart="1868.00" departPos="18.18" arrival="1869.00" arrivalPos="19.18" duration="1.00" routeLength="1.00" timeLoss="0.28" maxSpeed="1.39"/>
        <ride waitingTime="478.00" vehicle="bus_22:0.0" depart="2347.00" arrival="2752.00" arrivalPos="138.88" duration="405.00" routeLength="1465.72" timeLoss="43.54"/>
    </personinfo>
    <personinfo id="410471030.22.2120" depart="2120.00" type="DEFAULT_PEDTYPE">
        <walk depart="2120.00" departPos="18.18" arrival="2121.00" arrivalPos="19.18" duration="1.00" routeLength="1.00" timeLoss="0.28" maxSpeed="1.39"/>
        <ride waitingTime="226.00" vehicle="bus_22:0.0" depart="2347.00" arrival="2752.00" arrivalPos="138.88" duration="405.00" routeLength="1465.72" timeLoss="43.54"/>
    </personinfo>
    <personinfo id="410480716.22.2315" depart="2315.00" type="DEFAULT_PEDTYPE">
        <walk depart="2315.00" departPos="9.98" arrival="2316.00" arrivalPos="10.98" duration="1.00" routeLength="1.00" timeLoss="0.28" maxSpeed="1.39"/>
        <ride waitingTime="178.00" vehicle="bus_22:0.0" depart="2494.00" arrival="2789.00" arrivalPos="37.17" duration="295.00" routeLength="1060.13" timeLoss="32.47"/>
    </personinfo>
    <personinfo id="410486991.43.2242" depart="2242.00" type="DEFAULT_PEDTYPE">
        <walk depart="2242.00" departPos="194.33" arrival="2243.00" arrivalPos="195.33" duration="1.00" routeLength="1.00" timeLoss="0.28" maxSpeed="1.39"/>
        <ride waitingTime="202.00" vehicle="bus_43:0.1" depart="2445.00" arrival="2837.00" arrivalPos="11.11" duration="392.00" routeLength="1117.04" timeLoss="28.59"/>
    </personinfo>
    <personinfo id="410460005.22.1792" depart="1792.00" type="DEFAULT_PEDTYPE">
        <walk depart="1792.00" departPos="286.81" arrival="2023.00" arrivalPos="0.00" duration="231.00" routeLength="286.81" timeLoss="24.50" maxSpeed="1.39"/>
        <ride waitingTime="379.00" vehicle="bus_22:0.4" depart="2402.00" arrival="2840.00" arrivalPos="48.70" duration="438.00" routeLength="1598.18" timeLoss="45.23"/>
    </personinfo>
    <personinfo id="410459901.22.1504" depart="1504.00" type="DEFAULT_PEDTYPE">
        <walk depart="1504.00" departPos="553.15" arrival="1946.00" arrivalPos="0.00" duration="442.00" routeLength="553.15" timeLoss="43.73" maxSpeed="1.39"/>
        <ride waitingTime="590.00" vehicle="bus_22:0.4" depart="2536.00" arrival="2840.00" arrivalPos="48.70" duration="304.00" routeLength="1100.60" timeLoss="33.59"/>
    </personinfo>
    <personinfo id="410462211.43.965" depart="965.00" type="DEFAULT_PEDTYPE">
        <walk depart="965.00" departPos="18.63" arrival="966.00" arrivalPos="19.63" duration="1.00" routeLength="1.00" timeLoss="0.28" maxSpeed="1.39"/>
        <ride waitingTime="786.00" vehicle="bus_43:0.0" depart="1752.00" arrival="2919.00" arrivalPos="40.58" duration="1167.00" routeLength="2601.45" timeLoss="71.56"/>
    </personinfo>
    <personinfo id="410462211.43.1267" depart="1267.00" type="DEFAULT_PEDTYPE">
        <walk depart="1267.00" departPos="18.63" arrival="1268.00" arrivalPos="19.63" duration="1.00" routeLength="1.00" timeLoss="0.28" maxSpeed="1.39"/>
        <ride waitingTime="484.00" vehicle="bus_43:0.0" depart="1752.00" arrival="2919.00" arrivalPos="40.58" duration="1167.00" routeLength="2601.43" timeLoss="71.56"/>
    </personinfo>
    <personinfo id="410459904.22.299" depart="299.00" type="DEFAULT_PEDTYPE">
        <walk depart="299.00" departPos="19.22" arrival="300.00" arrivalPos="20.22" duration="1.00" routeLength="1.00" timeLoss="0.28" maxSpeed="1.39"/>
        <ride waitingTime="12.00" vehicle="bus_22:0.0" depart="312.00" arrival="2984.00" arrivalPos="39.40" duration="2672.00" routeLength="9360.25" timeLoss="235.14"/>
    </personinfo>
    <personinfo id="410480722.22.2214" depart="2214.00" type="DEFAULT_PEDTYPE">
        <walk depart="2214.00" departPos="184.20" arrival="2215.00" arrivalPos="185.20" duration="1.00" routeLength="1.00" timeLoss="0.28" maxSpeed="1.39"/>
        <ride waitingTime="375.00" vehicle="bus_22:0.0" depart="2590.00" arrival="2984.00" arrivalPos="39.40" duration="394.00" routeLength="1413.86" timeLoss="44.21"/>
    </personinfo>
    <personinfo id="410475114.22.1105" depart="1105.00" type="DEFAULT_PEDTYPE">
        <walk depart="1105.00" departPos="84.99" arrival="1106.00" arrivalPos="85.99" duration="1.00" routeLength="1.00" timeLoss="0.28" maxSpeed="1.39"/>
        <ride waitingTime="76.00" vehicle="bus_22:0.0" depart="1182.00" arrival="3098.00" arrivalPos="32.69" duration="1916.00" routeLength="6506.79" timeLoss="175.11"/>
    </personinfo>
    <personinfo id="1531005322.22.549" depart="549.00" type="DEFAULT_PEDTYPE">
        <walk depart="549.00" departPos="12.13" arrival="550.00" arrivalPos="13.13" duration="1.00" routeLength="1.00" timeLoss="0.28" maxSpeed="1.39"/>
        <ride waitingTime="720.00" vehicle="bus_22:0.0" depart="1270.00" arrival="3099.00" arrivalPos="32.69" duration="1829.00" routeLength="6186.55" timeLoss="166.21"/>
    </personinfo>
    <personinfo id="410462103.22.1987" depart="1987.00" type="DEFAULT_PEDTYPE">
        <walk depart="1987.00" departPos="51.46" arrival="1988.00" arrivalPos="52.46" duration="1.00" routeLength="1.00" timeLoss="0.28" maxSpeed="1.39"/>
        <ride waitingTime="219.00" vehicle="bus_22:0.2" depart="2207.00" arrival="3127.00" arrivalPos="83.07" duration="920.00" routeLength="2798.53" timeLoss="69.49"/>
    </personinfo>
    <personinfo id="1531005322.43.2464" depart="2464.00" type="DEFAULT_PEDTYPE">
        <walk depart="2464.00" departPos="12.13" arrival="2465.00" arrivalPos="13.13" duration="1.00" routeLength="1.00" timeLoss="0.28" maxSpeed="1.39"/>
        <ride waitingTime="86.00" vehicle="bus_22:0.2" depart="2551.00" arrival="3127.00" arrivalPos="83.07" duration="576.00" routeLength="1756.27" timeLoss="41.68"/>
    </personinfo>
    <personinfo id="410460005.22.1226" depart="1226.00" type="DEFAULT_PEDTYPE">
        <walk depart="1226.00" departPos="286.81" arrival="1454.00" arrivalPos="0.00" duration="228.00" routeLength="286.81" timeLoss="21.50" maxSpeed="1.39"/>
        <ride waitingTime="349.00" vehicle="bus_22:0.3" depart="1803.00" arrival="3150.00" arrivalPos="176.35" duration="1347.00" routeLength="5051.71" timeLoss="107.89"/>
    </personinfo>
    <personinfo id="410462103.22.2191" depart="2191.00" type="DEFAULT_PEDTYPE">
        <walk depart="2191.00" departPos="51.46" arrival="2192.00" arrivalPos="52.46" duration="1.00" routeLength="1.00" timeLoss="0.28" maxSpeed="1.39"/>
        <ride waitingTime="15.00" vehicle="bus_22:0.2" depart="2207.00" arrival="3171.00" arrivalPos="159.79" duration="964.00" routeLength="2875.16" timeLoss="73.78"/>
    </personinfo>
    <personinfo id="1849631269.43.664" depart="664.00" type="DEFAULT_PEDTYPE">
        <walk depart="664.00" departPos="160.44" arrival="793.00" arrivalPos="0.00" duration="129.00" routeLength="160.44" timeLoss="13.48" maxSpeed="1.39"/>
        <ride waitingTime="205.00" vehicle="bus_43:0.0" depart="998.00" arrival="3171.00" arrivalPos="108.29" duration="2173.00" routeLength="4976.13" timeLoss="133.40"/>
    </personinfo>
    <personinfo id="410465916.22.533" depart="533.00" type="DEFAULT_PEDTYPE">
        <walk depart="533.00" departPos="28.40" arrival="534.00" arrivalPos="29.40" duration="1.00" routeLength="1.00" timeLoss="0.28" maxSpeed="1.39"/>
        <ride waitingTime="2452.00" vehicle="bus_22:0.0" depart="2986.00" arrival="3234.00" arrivalPos="10.73" duration="248.00" routeLength="874.43" timeLoss="22.76"/>
    </personinfo>
    <personinfo id="410465917.22.1298" depart="1298.00" type="DEFAULT_PEDTYPE">
        <walk depart="1298.00" departPos="21.70" arrival="1299.00" arrivalPos="22.70" duration="1.00" routeLength="1.00" timeLoss="0.28" maxSpeed="1.39"/>
        <ride waitingTime="1801.00" vehicle="bus_22:0.0" depart="3100.00" arrival="3235.00" arrivalPos="10.73" duration="135.00" routeLength="479.12" timeLoss="13.16"/>
    </personinfo>
    <personinfo id="410465917.22.1330" depart="1330.00" type="DEFAULT_PEDTYPE">
        <walk depart="1330.00" departPos="21.70" arrival="1331.00" arrivalPos="22.70" duration="1.00" routeLength="1.00" timeLoss="0.28" maxSpeed="1.39"/>
        <ride waitingTime="1769.00" vehicle="bus_22:0.0" depart="3100.00" arrival="3235.00" arrivalPos="10.73" duration="135.00" routeLength="479.12" timeLoss="13.16"/>
    </personinfo>
    <personinfo id="410465917.22.1380" depart="1380.00" type="DEFAULT_PEDTYPE">
        <walk depart="1380.00" departPos="21.70" arrival="1381.00" arrivalPos="22.70" duration="1.00" routeLength="1.00" timeLoss="0.28" maxSpeed="1.39"/>
        <ride waitingTime="1719.00" vehicle="bus_22:0.0" depart="3100.00" arrival="3236.00" arrivalPos="10.73" duration="136.00" routeLength="479.08" timeLoss="13.16"/>
    </personinfo>
    <personinfo id="410465917.22.2173" depart="2173.00" type="DEFAULT_PEDTYPE">
        <walk depart="2173.00" departPos="21.70" arrival="2174.00" arrivalPos="22.70" duration="1.00" routeLength="1.00" timeLoss="0.28" maxSpeed="1.39"/>
        <ride waitingTime="926.00" vehicle="bus_22:0.0" depart="3100.00" arrival="3236.00" arrivalPos="10.73" duration="136.00" routeLength="479.08" timeLoss="13.16"/>
    </personinfo>
    <personinfo id="410465917.22.2447" depart="2447.00" type="DEFAULT_PEDTYPE">
        <walk depart="2447.00" departPos="21.70" arrival="2448.00" arrivalPos="22.70" duration="1.00" routeLength="1.00" timeLoss="0.28" maxSpeed="1.39"/>
        <ride waitingTime="652.00" vehicle="bus_22:0.0" depart="3100.00" arrival="3237.00" arrivalPos="10.73" duration="137.00" routeLength="479.08" timeLoss="13.16"/>
    </personinfo>
    <personinfo id="410486991.43.2482" depart="2482.00" type="DEFAULT_PEDTYPE">
        <walk depart="2482.00" departPos="194.33" arrival="2483.00" arrivalPos="195.33" duration="1.00" routeLength="1.00" timeLoss="0.28" maxSpeed="1.39"/>
        <ride waitingTime="536.00" vehicle="bus_43:0.2" depart="3019.00" arrival="3256.00" arrivalPos="29.61" duration="237.00" routeLength="866.44" timeLoss="24.70"/>
    </personinfo>
    <personinfo id="410486955.43.3036" depart="3036.00" type="DEFAULT_PEDTYPE">
        <walk depart="3036.00" departPos="49.88" arrival="3037.00" arrivalPos="50.88" duration="1.00" routeLength="1.00" timeLoss="0.28" maxSpeed="1.39"/>
        <ride waitingTime="108.00" vehicle="bus_43:0.2" depart="3145.00" arrival="3256.00" arrivalPos="29.61" duration="111.00" routeLength="407.44" timeLoss="11.64"/>
    </personinfo>
    <personinfo id="1849631269.43.886" depart="886.00" type="DEFAULT_PEDTYPE">
        <walk depart="886.00" departPos="160.44" arrival="1014.00" arrivalPos="0.00" duration="128.00" routeLength="160.44" timeLoss="12.48" maxSpeed="1.39"/>
        <ride waitingTime="406.00" vehicle="bus_43:0.1" depart="1420.00" arrival="3270.00" arrivalPos="108.27" duration="1850.00" routeLength="4976.18" timeLoss="272.37"/>
    </personinfo>
    <personinfo id="410459904.22.2492" depart="2492.00" type="DEFAULT_PEDTYPE">
        <walk depart="2492.00" departPos="19.22" arrival="2493.00" arrivalPos="20.22" duration="1.00" routeLength="1.00" timeLoss="0.28" maxSpeed="1.39"/>
        <ride waitingTime="229.00" vehicle="bus_22:0.4" depart="2722.00" arrival="3288.00" arrivalPos="18.98" duration="566.00" routeLength="1985.29" timeLoss="50.81"/>
    </personinfo>
    <personinfo id="410475114.22.77" depart="77.00" type="DEFAULT_PEDTYPE">
        <walk depart="77.00" departPos="84.99" arrival="78.00" arrivalPos="85.99" duration="1.00" routeLength="1.00" timeLoss="0.28" maxSpeed="1.39"/>
        <ride waitingTime="1104.00" vehicle="bus_22:0.0" depart="1182.00" arrival="3361.00" arrivalPos="10.28" duration="2179.00" routeLength="7443.61" timeLoss="199.64"/>
    </personinfo>
    <personinfo id="410465917.22.1921" depart="1921.00" type="DEFAULT_PEDTYPE">
        <walk depart="1921.00" departPos="21.70" arrival="1922.00" arrivalPos="22.70" duration="1.00" routeLength="1.00" timeLoss="0.28" maxSpeed="1.39"/>
        <ride waitingTime="1178.00" vehicle="bus_22:0.0" depart="3100.00" arrival="3361.00" arrivalPos="10.28" duration="261.00" routeLength="936.83" timeLoss="24.53"/>
    </personinfo>
    <personinfo id="410465917.22.2248" depart="2248.00" type="DEFAULT_PEDTYPE">
        <walk depart="2248.00" departPos="21.70" arrival="2249.00" arrivalPos="22.70" duration="1.00" routeLength="1.00" timeLoss="0.28" maxSpeed="1.39"/>
        <ride waitingTime="851.00" vehicle="bus_22:0.0" depart="3100.00" arrival="3362.00" arrivalPos="10.28" duration="262.00" routeLength="936.83" timeLoss="24.53"/>
    </personinfo>
    <personinfo id="410465917.22.3032" depart="3032.00" type="DEFAULT_PEDTYPE">
        <walk depart="3032.00" departPos="21.70" arrival="3033.00" arrivalPos="22.70" duration="1.00" routeLength="1.00" timeLoss="0.28" maxSpeed="1.39"/>
        <ride waitingTime="67.00" vehicle="bus_22:0.0" depart="3100.00" arrival="3362.00" arrivalPos="10.28" duration="262.00" routeLength="936.83" timeLoss="24.53"/>
    </personinfo>
    <personinfo id="410465917.22.3060" depart="3060.00" type="DEFAULT_PEDTYPE">
        <walk depart="3060.00" departPos="21.70" arrival="3061.00" arrivalPos="22.70" duration="1.00" routeLength="1.00" timeLoss="0.28" maxSpeed="1.39"/>
        <ride waitingTime="39.00" vehicle="bus_22:0.0" depart="3100.00" arrival="3363.00" arrivalPos="10.28" duration="263.00" routeLength="936.83" timeLoss="24.53"/>
    </personinfo>
    <personinfo id="410465915.22.130" depart="130.00" type="DEFAULT_PEDTYPE">
        <walk depart="130.00" departPos="138.08" arrival="241.00" arrivalPos="0.00" duration="111.00" routeLength="138.08" timeLoss="11.58" maxSpeed="1.39"/>
        <ride waitingTime="2997.00" vehicle="bus_22:0.0" depart="3238.00" arrival="3363.00" arrivalPos="10.28" duration="125.00" routeLength="457.79" timeLoss="11.37"/>
    </personinfo>
    <personinfo id="410465915.22.1017" depart="1017.00" type="DEFAULT_PEDTYPE">
        <walk depart="1017.00" departPos="138.08" arrival="1128.00" arrivalPos="0.00" duration="111.00" routeLength="138.08" timeLoss="11.58" maxSpeed="1.39"/>
        <ride waitingTime="2110.00" vehicle="bus_22:0.0" depart="3238.00" arrival="3364.00" arrivalPos="10.28" duration="126.00" routeLength="457.79" timeLoss="11.37"/>
    </personinfo>
    <personinfo id="410465915.22.2658" depart="2658.00" type="DEFAULT_PEDTYPE">
        <walk depart="2658.00" departPos="138.08" arrival="2767.00" arrivalPos="0.00" duration="109.00" routeLength="138.08" timeLoss="9.58" maxSpeed="1.39"/>
        <ride waitingTime="471.00" vehicle="bus_22:0.0" depart="3238.00" arrival="3364.00" arrivalPos="10.28" duration="126.00" routeLength="457.74" timeLoss="11.37"/>
    </personinfo>
    <personinfo id="410465915.22.2873" depart="2873.00" type="DEFAULT_PEDTYPE">
        <walk depart="2873.00" departPos="138.08" arrival="2984.00" arrivalPos="0.00" duration="111.00" routeLength="138.08" timeLoss="11.58" maxSpeed="1.39"/>
        <ride waitingTime="254.00" vehicle="bus_22:0.0" depart="3238.00" arrival="3365.00" arrivalPos="10.28" duration="127.00" routeLength="457.74" timeLoss="11.37"/>
    </personinfo>
    <personinfo id="410486955.43.2206" depart="2206.00" type="DEFAULT_PEDTYPE">
        <walk depart="2206.00" departPos="49.88" arrival="2207.00" arrivalPos="50.88" duration="1.00" routeLength="1.00" timeLoss="0.28" maxSpeed="1.39"/>
        <ride waitingTime="230.00" vehicle="bus_43:0.0" depart="2437.00" arrival="3402.00" arrivalPos="33.15" duration="965.00" routeLength="1850.32" timeLoss="56.74"/>
    </personinfo>
    <personinfo id="410462103.22.1195" depart="1195.00" type="DEFAULT_PEDTYPE">
        <walk depart="1195.00" departPos="51.46" arrival="1196.00" arrivalPos="52.46" duration="1.00" routeLength="1.00" timeLoss="0.28" maxSpeed="1.39"/>
        <ride waitingTime="412.00" vehicle="bus_22:0.1" depart="1608.00" arrival="3425.00" arrivalPos="37.17" duration="1817.00" routeLength="6131.39" timeLoss="144.58"/>
    </personinfo>
    <personinfo id="410460005.22.1824" depart="1824.00" type="DEFAULT_PEDTYPE">
        <walk depart="1824.00" departPos="286.81" arrival="2054.00" arrivalPos="0.00" duration="230.00" routeLength="286.81" timeLoss="23.50" maxSpeed="1.39"/>
        <ride waitingTime="348.00" vehicle="bus_22:0.4" depart="2402.00" arrival="3441.00" arrivalPos="62.46" duration="1039.00" routeLength="3693.99" timeLoss="101.09"/>
    </personinfo>
    <personinfo id="410482520.22.2232" depart="2232.00" type="DEFAULT_PEDTYPE">
        <walk depart="2232.00" departPos="2.85" arrival="2233.00" arrivalPos="3.85" duration="1.00" routeLength="1.00" timeLoss="0.28" maxSpeed="1.39"/>
        <ride waitingTime="560.00" vehicle="bus_22:0.2" depart="2793.00" arrival="3484.00" arrivalPos="102.53" duration="691.00" routeLength="2108.27" timeLoss="50.83"/>
    </personinfo>
    <personinfo id="1849631331.43.3145" depart="3145.00" type="DEFAULT_PEDTYPE">
        <walk depart="3145.00" departPos="42.45" arrival="3146.00" arrivalPos="43.45" duration="1.00" routeLength="1.00" timeLoss="0.28" maxSpeed="1.39"/>
        <ride waitingTime="116.00" vehicle="bus_43:0.5" depart="3262.00" arrival="3501.00" arrivalPos="135.87" duration="239.00" routeLength="899.28" timeLoss="19.67"/>
    </personinfo>
    <personinfo id="410480716.22.1153" depart="1153.00" type="DEFAULT_PEDTYPE">
        <walk depart="1153.00" departPos="9.98" arrival="1154.00" arrivalPos="10.98" duration="1.00" routeLength="1.00" timeLoss="0.28" maxSpeed="1.39"/>
        <ride waitingTime="1340.00" vehicle="bus_22:0.0" depart="2494.00" arrival="3562.00" arrivalPos="80.50" duration="1068.00" routeLength="3818.40" timeLoss="106.80"/>
    </personinfo>
    <personinfo id="410465917.22.1987" depart="1987.00" type="DEFAULT_PEDTYPE">
        <walk depart="1987.00" departPos="21.70" arrival="1988.00" arrivalPos="22.70" duration="1.00" routeLength="1.00" timeLoss="0.28" maxSpeed="1.39"/>
        <ride waitingTime="1112.00" vehicle="bus_22:0.0" depart="3100.00" arrival="3563.00" arrivalPos="80.50" duration="463.00" routeLength="1660.89" timeLoss="42.95"/>
    </personinfo>
    <personinfo id="410465917.22.2061" depart="2061.00" type="DEFAULT_PEDTYPE">
        <walk depart="2061.00" departPos="21.70" arrival="2062.00" arrivalPos="22.70" duration="1.00" routeLength="1.00" timeLoss="0.28" maxSpeed="1.39"/>
        <ride waitingTime="1038.00" vehicle="bus_22:0.0" depart="3100.00" arrival="3563.00" arrivalPos="80.50" duration="463.00" routeLength="1660.89" timeLoss="42.95"/>
    </personinfo>
    <personinfo id="410465917.22.2481" depart="2481.00" type="DEFAULT_PEDTYPE">
        <walk depart="2481.00" departPos="21.70" arrival="2482.00" arrivalPos="22.70" duration="1.00" routeLength="1.00" timeLoss="0.28" maxSpeed="1.39"/>
        <ride waitingTime="618.00" vehicle="bus_22:0.0" depart="3100.00" arrival="3564.00" arrivalPos="80.50" duration="464.00" routeLength="1660.89" timeLoss="42.95"/>
    </personinfo>
    <personinfo id="410465917.22.2758" depart="2758.00" type="DEFAULT_PEDTYPE">
        <walk depart="2758.00" departPos="21.70" arrival="2759.00" arrivalPos="22.70" duration="1.00" routeLength="1.00" timeLoss="0.28" maxSpeed="1.39"/>
        <ride waitingTime="341.00" vehicle="bus_22:0.0" depart="3100.00" arrival="3564.00" arrivalPos="80.50" duration="464.00" routeLength="1660.89" timeLoss="42.95"/>
    </personinfo>
    <personinfo id="410465915.22.1996" depart="1996.00" type="DEFAULT_PEDTYPE">
        <walk depart="1996.00" departPos="138.08" arrival="2107.00" arrivalPos="0.00" duration="111.00" routeLength="138.08" timeLoss="11.58" maxSpeed="1.39"/>
        <ride waitingTime="1131.00" vehicle="bus_22:0.0" depart="3238.00" arrival="3565.00" arrivalPos="80.50" duration="327.00" routeLength="1181.85" timeLoss="29.79"/>
    </personinfo>