<?xml version="1.0" encoding="UTF-8"?>

<!-- generated on 2024-06-03 12:53:37 by Eclipse SUMO sumo Version 1.14.1
<configuration xmlns:xsi="http://www.w3.org/2001/XMLSchema-instance" xsi:noNamespaceSchemaLocation="http://sumo.dlr.de/xsd/sumoConfiguration.xsd">

    <input>
        <net-file value="singapore/sumo/singaporeInitial.net.xml"/>
        <route-files value="singapore/sumo/busFlows.rou.xml"/>
        <additional-files value="singapore/sumo/busstops.xml"/>
    </input>

    <output>
        <tripinfo-output value="tripinfo.xml"/>
    </output>

    <processing>
        <no-internal-links value="true"/>
        <time-to-teleport value="550"/>
    </processing>

    <traci_server>
        <remote-port value="59789"/>
    </traci_server>

</configuration>
-->

<tripinfos xmlns:xsi="http://www.w3.org/2001/XMLSchema-instance" xsi:noNamespaceSchemaLocation="http://sumo.dlr.de/xsd/tripinfo_file.xsd">
    <personinfo id="410482520.22.651" depart="651.00" type="DEFAULT_PEDTYPE">
        <walk depart="651.00" departPos="2.85" arrival="652.00" arrivalPos="3.85" duration="1.00" routeLength="1.00" timeLoss="0.28" maxSpeed="1.39"/>
        <ride waitingTime="747.00" vehicle="bus_22:0.0" depart="1399.00" arrival="1550.00" arrivalPos="31.75" duration="151.00" routeLength="560.42" timeLoss="14.32"/>
    </personinfo>
    <personinfo id="1849631269.43.259" depart="259.00" type="DEFAULT_PEDTYPE">
        <walk depart="259.00" departPos="160.44" arrival="388.00" arrivalPos="0.00" duration="129.00" routeLength="160.44" timeLoss="13.48" maxSpeed="1.39"/>
        <ride waitingTime="515.00" vehicle="bus_43:0.0" depart="903.00" arrival="1751.00" arrivalPos="29.62" duration="848.00" routeLength="2132.74" timeLoss="52.83"/>
    </personinfo>
    <personinfo id="410462101.22.699" depart="699.00" type="DEFAULT_PEDTYPE">
        <walk depart="699.00" departPos="11.46" arrival="700.00" arrivalPos="12.46" duration="1.00" routeLength="1.00" timeLoss="0.28" maxSpeed="1.39"/>
        <ride waitingTime="958.00" vehicle="bus_22:0.1" depart="1658.00" arrival="1862.00" arrivalPos="95.99" duration="204.00" routeLength="761.94" timeLoss="18.17"/>
    </personinfo>
    <personinfo id="410475114.22.284" depart="284.00" type="DEFAULT_PEDTYPE">
        <walk depart="284.00" departPos="84.99" arrival="285.00" arrivalPos="85.99" duration="1.00" routeLength="1.00" timeLoss="0.28" maxSpeed="1.39"/>
        <ride waitingTime="1594.00" vehicle="bus_22:0.1" depart="1879.00" arrival="2207.00" arrivalPos="13.82" duration="328.00" routeLength="880.73" timeLoss="22.21"/>
    </personinfo>
    <personinfo id="410460005.22.1101" depart="1101.00" type="DEFAULT_PEDTYPE">
        <walk depart="1101.00" departPos="286.81" arrival="1330.00" arrivalPos="0.00" duration="229.00" routeLength="286.81" timeLoss="22.50" maxSpeed="1.39"/>
        <ride waitingTime="473.00" vehicle="bus_22:0.3" depart="1803.00" arrival="2227.00" arrivalPos="48.69" duration="424.00" routeLength="1598.17" timeLoss="34.21"/>
    </personinfo>
    <personinfo id="410460005.22.1219" depart="1219.00" type="DEFAULT_PEDTYPE">
        <walk depart="1219.00" departPos="286.81" arrival="1450.00" arrivalPos="0.00" duration="231.00" routeLength="286.81" timeLoss="24.50" maxSpeed="1.39"/>
        <ride waitingTime="353.00" vehicle="bus_22:0.3" depart="1803.00" arrival="2227.00" arrivalPos="48.69" duration="424.00" routeLength="1598.17" timeLoss="34.21"/>
    </personinfo>
    <personinfo id="410460005.22.1284" depart="1284.00" type="DEFAULT_PEDTYPE">
        <walk depart="1284.00" departPos="286.81" arrival="1513.00" arrivalPos="0.00" duration="229.00" routeLength="286.81" timeLoss="22.50" maxSpeed="1.39"/>
        <ride waitingTime="290.00" vehicle="bus_22:0.3" depart="1803.00" arrival="2422.00" arrivalPos="26.18" duration="619.00" routeLength="2323.48" timeLoss="51.31"/>
    </personinfo>
    <personinfo id="410462103.22.1017" depart="1017.00" type="DEFAULT_PEDTYPE">
        <walk depart="1017.00" departPos="51.46" arrival="1018.00" arrivalPos="52.46" duration="1.00" routeLength="1.00" timeLoss="0.28" maxSpeed="1.39"/>
        <ride waitingTime="1319.00" vehicle="bus_22:0.2" depart="2337.00" arrival="2637.00" arrivalPos="24.58" duration="300.00" routeLength="1042.27" timeLoss="27.83"/>
    </personinfo>
    <personinfo id="410482520.43.1837" depart="1837.00" type="DEFAULT_PEDTYPE">
        <walk depart="1837.00" departPos="2.85" arrival="1838.00" arrivalPos="3.85" duration="1.00" routeLength="1.00" timeLoss="0.28" maxSpeed="1.39"/>
        <ride waitingTime="399.00" vehicle="bus_22:0.1" depart="2237.00" arrival="2730.00" arrivalPos="98.67" duration="493.00" routeLength="1843.61" timeLoss="42.35"/>
    </personinfo>
    <personinfo id="1849631273.43.471" depart="471.00" type="DEFAULT_PEDTYPE">
        <walk depart="471.00" departPos="413.46" arrival="800.00" arrivalPos="0.00" duration="329.00" routeLength="413.46" timeLoss="31.31" maxSpeed="1.39"/>
        <ride waitingTime="462.00" vehicle="bus_43:0.0" depart="1262.00" arrival="2772.00" arrivalPos="11.12" duration="1510.00" routeLength="3291.90" timeLoss="90.17"/>
    </personinfo>
    <personinfo id="4430976208.43.705" depart="705.00" type="DEFAULT_PEDTYPE">
        <walk depart="705.00" departPos="18.61" arrival="706.00" arrivalPos="19.61" duration="1.00" routeLength="1.00" timeLoss="0.28" maxSpeed="1.39"/>
        <ride waitingTime="1995.00" vehicle="bus_43:0.0" depart="2701.00" arrival="2773.00" arrivalPos="11.12" duration="72.00" routeLength="250.70" timeLoss="8.89"/>
    </personinfo>
    <personinfo id="410475114.22.2458" depart="2458.00" type="DEFAULT_PEDTYPE">
        <walk depart="2458.00" departPos="84.99" arrival="2459.00" arrivalPos="85.99" duration="1.00" routeLength="1.00" timeLoss="0.28" maxSpeed="1.39"/>
        <ride waitingTime="89.00" vehicle="bus_22:0.2" depart="2548.00" arrival="2813.00" arrivalPos="13.85" duration="265.00" routeLength="880.84" timeLoss="23.19"/>
    </personinfo>
    <personinfo id="410462293.43.519" depart="519.00" type="DEFAULT_PEDTYPE">
        <walk depart="519.00" departPos="10.48" arrival="520.00" arrivalPos="11.48" duration="1.00" routeLength="1.00" timeLoss="0.28" maxSpeed="1.39"/>
        <ride waitingTime="1114.00" vehicle="bus_43:0.0" depart="1634.00" arrival="2981.00" arrivalPos="40.59" duration="1347.00" routeLength="3026.65" timeLoss="82.86"/>
    </personinfo>
    <personinfo id="410486991.43.2253" depart="2253.00" type="DEFAULT_PEDTYPE">
        <walk depart="2253.00" departPos="194.33" arrival="2254.00" arrivalPos="195.33" duration="1.00" routeLength="1.00" timeLoss="0.28" maxSpeed="1.39"/>
        <ride waitingTime="53.00" vehicle="bus_43:0.0" depart="2307.00" arrival="2981.00" arrivalPos="40.59" duration="674.00" routeLength="1549.58" timeLoss="46.09"/>
    </personinfo>
    <personinfo id="410482520.22.2452" depart="2452.00" type="DEFAULT_PEDTYPE">
        <walk depart="2452.00" departPos="2.85" arrival="2453.00" arrivalPos="3.85" duration="1.00" routeLength="1.00" timeLoss="0.28" maxSpeed="1.39"/>
        <ride waitingTime="382.00" vehicle="bus_22:0.2" depart="2835.00" arrival="2985.00" arrivalPos="31.75" duration="150.00" routeLength="560.42" timeLoss="13.33"/>
    </personinfo>
    <personinfo id="410462103.22.1970" depart="1970.00" type="DEFAULT_PEDTYPE">
        <walk depart="1970.00" departPos="51.46" arrival="1971.00" arrivalPos="52.46" duration="1.00" routeLength="1.00" timeLoss="0.28" maxSpeed="1.39"/>
        <ride waitingTime="366.00" vehicle="bus_22:0.2" depart="2337.00" arrival="3040.00" arrivalPos="14.16" duration="703.00" routeLength="2359.01" timeLoss="59.68"/>
    </personinfo>
    <personinfo id="1531005322.43.1325" depart="1325.00" type="DEFAULT_PEDTYPE">
        <walk depart="1325.00" departPos="12.13" arrival="1326.00" arrivalPos="13.13" duration="1.00" routeLength="1.00" timeLoss="0.28" maxSpeed="1.39"/>
        <ride waitingTime="729.00" vehicle="bus_22:0.1" depart="2055.00" arrival="3071.00" arrivalPos="29.18" duration="1016.00" routeLength="3497.95" timeLoss="85.89"/>
    </personinfo>
    <personinfo id="410462211.43.1606" depart="1606.00" type="DEFAULT_PEDTYPE">
        <walk depart="1606.00" departPos="18.63" arrival="1607.00" arrivalPos="19.63" duration="1.00" routeLength="1.00" timeLoss="0.28" maxSpeed="1.39"/>
        <ride waitingTime="234.00" vehicle="bus_43:0.0" depart="1841.00" arrival="3139.00" arrivalPos="108.29" duration="1298.00" routeLength="2843.38" timeLoss="78.56"/>
    </personinfo>
    <personinfo id="410460005.22.2353" depart="2353.00" type="DEFAULT_PEDTYPE">
        <walk depart="2353.00" departPos="286.81" arrival="2582.00" arrivalPos="0.00" duration="229.00" routeLength="286.81" timeLoss="22.50" maxSpeed="1.39"/>
        <ride waitingTime="421.00" vehicle="bus_22:0.5" depart="3003.00" arrival="3141.00" arrivalPos="10.31" duration="138.00" routeLength="497.59" timeLoss="12.65"/>
    </personinfo>
    <personinfo id="410465917.22.1910" depart="1910.00" type="DEFAULT_PEDTYPE">
        <walk depart="1910.00" departPos="21.70" arrival="1911.00" arrivalPos="22.70" duration="1.00" routeLength="1.00" timeLoss="0.28" maxSpeed="1.39"/>
        <ride waitingTime="1127.00" vehicle="bus_22:0.0" depart="3038.00" arrival="3171.00" arrivalPos="10.72" duration="133.00" routeLength="479.09" timeLoss="11.16"/>
    </personinfo>
    <personinfo id="410462103.22.536" depart="536.00" type="DEFAULT_PEDTYPE">
        <walk depart="536.00" departPos="51.46" arrival="537.00" arrivalPos="52.46" duration="1.00" routeLength="1.00" timeLoss="0.28" maxSpeed="1.39"/>
        <ride waitingTime="1800.00" vehicle="bus_22:0.2" depart="2337.00" arrival="3181.00" arrivalPos="159.79" duration="844.00" routeLength="2875.24" timeLoss="73.80"/>
    </personinfo>
    <personinfo id="410460005.22.744" depart="744.00" type="DEFAULT_PEDTYPE">
        <walk depart="744.00" departPos="286.81" arrival="974.00" arrivalPos="0.00" duration="230.00" routeLength="286.81" timeLoss="23.50" maxSpeed="1.39"/>
        <ride waitingTime="228.00" vehicle="bus_22:0.2" depart="1202.00" arrival="3334.00" arrivalPos="98.66" duration="2132.00" routeLength="7140.19" timeLoss="162.60"/>
    </personinfo>
    <personinfo id="410467153.22.1148" depart="1148.00" type="DEFAULT_PEDTYPE">
        <walk depart="1148.00" departPos="8.01" arrival="1149.00" arrivalPos="9.01" duration="1.00" routeLength="1.00" timeLoss="0.28" maxSpeed="1.39"/>
        <ride waitingTime="976.00" vehicle="bus_22:0.2" depart="2125.00" arrival="3334.00" arrivalPos="98.66" duration="1209.00" routeLength="3987.85" timeLoss="99.46"/>
    </personinfo>
    <personinfo id="410482568.22.2468" depart="2468.00" type="DEFAULT_PEDTYPE">
        <walk depart="2468.00" departPos="3.17" arrival="2469.00" arrivalPos="4.17" duration="1.00" routeLength="1.00" timeLoss="0.28" maxSpeed="1.39"/>
        <ride waitingTime="572.00" vehicle="bus_22:0.2" depart="3041.00" arrival="3334.00" arrivalPos="98.66" duration="293.00" routeLength="1087.24" timeLoss="26.86"/>
    </personinfo>
    <personinfo id="410459901.22.2174" depart="2174.00" type="DEFAULT_PEDTYPE">
        <walk depart="2174.00" departPos="553.15" arrival="2616.00" arrivalPos="0.00" duration="442.00" routeLength="553.15" timeLoss="43.73" maxSpeed="1.39"/>
        <ride waitingTime="538.00" vehicle="bus_22:0.5" depart="3154.00" arrival="3336.00" arrivalPos="30.20" duration="182.00" routeLength="669.52" timeLoss="15.72"/>
    </personinfo>
    <personinfo id="4430976208.43.334" depart="334.00" type="DEFAULT_PEDTYPE">
        <walk depart="334.00" departPos="18.61" arrival="335.00" arrivalPos="19.61" duration="1.00" routeLength="1.00" timeLoss="0.28" maxSpeed="1.39"/>
        <ride waitingTime="2366.00" vehicle="bus_43:0.0" depart="2701.00" arrival="3370.00" arrivalPos="33.15" duration="669.00" routeLength="1442.97" timeLoss="42.12"/>
    </personinfo>
    <personinfo id="410465917.22.1068" depart="1068.00" type="DEFAULT_PEDTYPE">
        <walk depart="1068.00" departPos="21.70" arrival="1069.00" arrivalPos="22.70" duration="1.00" routeLength="1.00" timeLoss="0.28" maxSpeed="1.39"/>
        <ride waitingTime="1969.00" vehicle="bus_22:0.0" depart="3038.00" arrival="3384.00" arrivalPos="10.24" duration="346.00" routeLength="936.83" timeLoss="23.53"/>
    </personinfo>
    <personinfo id="410465917.22.2155" depart="2155.00" type="DEFAULT_PEDTYPE">
        <walk depart="2155.00" departPos="21.70" arrival="2156.00" arrivalPos="22.70" duration="1.00" routeLength="1.00" timeLoss="0.28" maxSpeed="1.39"/>
        <ride waitingTime="882.00" vehicle="bus_22:0.0" depart="3038.00" arrival="3385.00" arrivalPos="10.24" duration="347.00" routeLength="936.80" timeLoss="23.53"/>
    </personinfo>
    <personinfo id="410465917.22.2224" depart="2224.00" type="DEFAULT_PEDTYPE">
        <walk depart="2224.00" departPos="21.70" arrival="2225.00" arrivalPos="22.70" duration="1.00" routeLength="1.00" timeLoss="0.28" maxSpeed="1.39"/>
        <ride waitingTime="813.00" vehicle="bus_22:0.0" depart="3038.00" arrival="3385.00" arrivalPos="10.24" duration="347.00" routeLength="936.80" timeLoss="23.53"/>
    </personinfo>
    <personinfo id="410465915.22.600" depart="600.00" type="DEFAULT_PEDTYPE">
        <walk depart="600.00" departPos="138.08" arrival="710.00" arrivalPos="0.00" duration="110.00" routeLength="138.08" timeLoss="10.58" maxSpeed="1.39"/>
        <ride waitingTime="2550.00" vehicle="bus_22:0.0" depart="3260.00" arrival="3386.00" arrivalPos="10.24" duration="126.00" routeLength="457.71" timeLoss="12.38"/>
    </personinfo>
    <personinfo id="410465915.22.709" depart="709.00" type="DEFAULT_PEDTYPE">
        <walk depart="709.00" departPos="138.08" arrival="821.00" arrivalPos="0.00" duration="112.00" routeLength="138.08" timeLoss="12.58" maxSpeed="1.39"/>
        <ride waitingTime="2439.00" vehicle="bus_22:0.0" depart="3260.00" arrival="3386.00" arrivalPos="10.24" duration="126.00" routeLength="457.71" timeLoss="12.38"/>
    </personinfo>
    <personinfo id="410465915.22.2529" depart="2529.00" type="DEFAULT_PEDTYPE">
        <walk depart="2529.00" departPos="138.08" arrival="2640.00" arrivalPos="0.00" duration="111.00" routeLength="138.08" timeLoss="11.58" maxSpeed="1.39"/>
        <ride waitingTime="620.00" vehicle="bus_22:0.0" depart="3260.00" arrival="3387.00" arrivalPos="10.24" duration="127.00" routeLength="457.71" timeLoss="12.38"/>
    </personinfo>
    <personinfo id="410462103.22.953" depart="953.00" type="DEFAULT_PEDTYPE">
        <walk depart="953.00" departPos="51.46" arrival="954.00" arrivalPos="52.46" duration="1.00" routeLength="1.00" timeLoss="0.28" maxSpeed="1.39"/>
        <ride waitingTime="1383.00" vehicle="bus_22:0.2" depart="2337.00" arrival="3449.00" arrivalPos="258.31" duration="1112.00" routeLength="3866.70" timeLoss="96.99"/>
    </personinfo>
    <personinfo id="410471030.22.2481" depart="2481.00" type="DEFAULT_PEDTYPE">
        <walk depart="2481.00" departPos="18.18" arrival="2482.00" arrivalPos="19.18" duration="1.00" routeLength="1.00" timeLoss="0.28" maxSpeed="1.39"/>
        <ride waitingTime="590.00" vehicle="bus_22:0.1" depart="3072.00" arrival="3463.00" arrivalPos="138.88" duration="391.00" routeLength="1465.73" timeLoss="33.52"/>
    </personinfo>
    <personinfo id="410482520.43.2853" depart="2853.00" type="DEFAULT_PEDTYPE">
        <walk depart="2853.00" departPos="2.85" arrival="2854.00" arrivalPos="3.85" duration="1.00" routeLength="1.00" timeLoss="0.28" maxSpeed="1.39"/>
        <ride waitingTime="485.00" vehicle="bus_22:0.3" depart="3339.00" arrival="3490.00" arrivalPos="31.76" duration="151.00" routeLength="560.47" timeLoss="14.32"/>
    </personinfo>
    <personinfo id="410486991.43.2401" depart="2401.00" type="DEFAULT_PEDTYPE">
        <walk depart="2401.00" departPos="194.33" arrival="2402.00" arrivalPos="195.33" duration="1.00" routeLength="1.00" timeLoss="0.28" maxSpeed="1.39"/>
        <ride waitingTime="611.00" vehicle="bus_43:0.2" depart="3013.00" arrival="3506.00" arrivalPos="108.29" duration="493.00" routeLength="1791.53" timeLoss="41.06"/>
    </personinfo>
    <personinfo id="410486991.43.2894" depart="2894.00" type="DEFAULT_PEDTYPE">
        <walk depart="2894.00" departPos="194.33" arrival="2895.00" arrivalPos="195.33" duration="1.00" routeLength="1.00" timeLoss="0.28" maxSpeed="1.39"/>
        <ride waitingTime="118.00" vehicle="bus_43:0.2" depart="3013.00" arrival="3506.00" arrivalPos="108.29" duration="493.00" routeLength="1791.50" timeLoss="41.06"/>
    </personinfo>
    <personinfo id="410486955.43.320" depart="320.00" type="DEFAULT_PEDTYPE">
        <walk depart="320.00" departPos="49.88" arrival="321.00" arrivalPos="50.88" duration="1.00" routeLength="1.00" timeLoss="0.28" maxSpeed="1.39"/>
        <ride waitingTime="2204.00" vehicle="bus_43:0.0" depart="2525.00" arrival="3561.00" arrivalPos="95.99" duration="1036.00" routeLength="2215.19" timeLoss="62.78"/>
    </personinfo>
    <personinfo id="410486969.43.2416" depart="2416.00" type="DEFAULT_PEDTYPE">
        <walk depart="2416.00" departPos="0.12" arrival="2417.00" arrivalPos="1.12" duration="1.00" routeLength="1.00" timeLoss="0.28" maxSpeed="1.39"/>
        <ride waitingTime="446.00" vehicle="bus_43:0.0" depart="2863.00" arrival="3561.00" arrivalPos="95.99" duration="698.00" routeLength="1557.13" timeLoss="43.25"/>
    </personinfo>
    <personinfo id="1531005322.22.3091" depart="3091.00" type="DEFAULT_PEDTYPE">
        <walk depart="3091.00" departPos="12.13" arrival="3092.00" arrivalPos="13.13" duration="1.00" routeLength="1.00" timeLoss="0.28" maxSpeed="1.39"/>
        <ride waitingTime="43.00" vehicle="bus_22:0.3" depart="3135.00" arrival="3565.00" arrivalPos="14.15" duration="430.00" routeLength="1316.84" timeLoss="36.86"/>
    </personinfo>
    <personinfo id="410482520.22.420" depart="420.00" type="DEFAULT_PEDTYPE">
        <walk depart="420.00" departPos="2.85" arrival="421.00" arrivalPos="3.85" duration="1.00" routeLength="1.00" timeLoss="0.28" maxSpeed="1.39"/>
        <ride waitingTime="978.00" vehicle="bus_22:0.0" depart="1399.00" arrival="3585.00" arrivalPos="80.50" duration="2186.00" routeLength="7286.93" timeLoss="158.75"/>
    </personinfo>
    <personinfo id="410465917.22.23" depart="23.00" type="DEFAULT_PEDTYPE">
        <walk depart="23.00" departPos="21.70" arrival="24.00" arrivalPos="22.70" duration="1.00" routeLength="1.00" timeLoss="0.28" maxSpeed="1.39"/>
        <ride waitingTime="3014.00" vehicle="bus_22:0.0" depart="3038.00" arrival="3585.00" arrivalPos="80.50" duration="547.00" routeLength="1660.92" timeLoss="40.93"/>
    </personinfo>
    <personinfo id="410465917.22.1750" depart="1750.00" type="DEFAULT_PEDTYPE">
        <walk depart="1750.00" departPos="21.70" arrival="1751.00" arrivalPos="22.70" duration="1.00" routeLength="1.00" timeLoss="0.28" maxSpeed="1.39"/>
        <ride waitingTime="1287.00" vehicle="bus_22:0.0" depart="3038.00" arrival="3586.00" arrivalPos="80.50" duration="548.00" routeLength="1660.92" timeLoss="40.93"/>
    </personinfo>
    <personinfo id="410465915.22.278" depart="278.00" type="DEFAULT_PEDTYPE">
        <walk depart="278.00" departPos="138.08" arrival="390.00" arrivalPos="0.00" duration="112.00" routeLength="138.08" timeLoss="12.58" maxSpeed="1.39"/>
        <ride waitingTime="2870.00" vehicle="bus_22:0.0" depart="3260.00" arrival="3586.00" arrivalPos="80.50" duration="326.00" routeLength="1181.84" timeLoss="29.78"/>
    </personinfo>
    <personinfo id="410465915.22.506" depart="506.00" type="DEFAULT_PEDTYPE">
        <walk depart="506.00" departPos="138.08" arrival="616.00" arrivalPos="0.00" duration="110.00" routeLength="138.08" timeLoss="10.58" maxSpeed="1.39"/>
        <ride waitingTime="2644.00" vehicle="bus_22:0.0" depart="3260.00" arrival="3587.00" arrivalPos="80.50" duration="327.00" routeLength="1181.84" timeLoss="29.78"/>
    </personinfo>
    <personinfo id="410465915.22.532" depart="532.00" type="DEFAULT_PEDTYPE">
        <walk depart="532.00" departPos="138.08" arrival="643.00" arrivalPos="0.00" duration="111.00" routeLength="138.08" timeLoss="11.58" maxSpeed="1.39"/>
        <ride waitingTime="2617.00" vehicle="bus_22:0.0" depart="3260.00" arrival="3587.00" arrivalPos="80.50" duration="327.00" routeLength="1181.84" timeLoss="29.78"/>
    </personinfo>
    <personinfo id="410465915.22.561" depart="561.00" type="DEFAULT_PEDTYPE">
        <walk depart="561.00" departPos="138.08" arrival="672.00" arrivalPos="0.00" duration="111.00" routeLength="138.08" timeLoss="11.58" maxSpeed="1.39"/>
        <ride waitingTime="2588.00" vehicle="bus_22:0.0" depart="3260.00" arrival="3588.00" arrivalPos="80.50" duration="328.00" routeLength="1181.81" timeLoss="29.78"/>
    </personinfo>
    <personinfo id="410465915.22.2116" depart="2116.00" type="DEFAULT_PEDTYPE">
        <walk depart="2116.00" departPos="138.08" arrival="2227.00" arrivalPos="0.00" duration="111.00" routeLength="138.08" timeLoss="11.58" maxSpeed="1.39"/>
        <ride waitingTime="1033.00" vehicle="bus_22:0.0" depart="3260.00" arrival="3588.00" arrivalPos="80.50" duration="328.00" routeLength="1181.81" timeLoss="29.78"/>
    </personinfo>
    <personinfo id="410459904.22.613" depart="613.00" type="DEFAULT_PEDTYPE">
        <walk depart="613.00" departPos="19.22" arrival="614.00" arrivalPos="20.22" duration="1.00" routeLength="1.00" timeLoss="0.28" maxSpeed="1.39"/>
        <ride waitingTime="2724.00" vehicle="bus_22:0.5" depart="3338.00" arrival="3647.00" arrivalPos="26.16" duration="309.00" routeLength="1156.41" timeLoss="26.97"/>
    </personinfo>
    <personinfo id="410462291.43.1587" depart="1587.00" type="DEFAULT_PEDTYPE">
        <walk depart="1587.00" departPos="415.85" arrival="1921.00" arrivalPos="0.00" duration="334.00" routeLength="415.85" timeLoss="34.59" maxSpeed="1.39"/>
        <ride waitingTime="99.00" vehicle="bus_43:0.0" depart="2020.00" arrival="3653.00" arrivalPos="24.57" duration="1633.00" routeLength="3724.27" timeLoss="104.73"/>
    </personinfo>
    <personinfo id="1847853709.43.2137" depart="2137.00" type="DEFAULT_PEDTYPE">
        <walk depart="2137.00" departPos="16.23" arrival="2138.00" arrivalPos="17.23" duration="1.00" routeLength="1.00" timeLoss="0.28" maxSpeed="1.39"/>
        <ride waitingTime="324.00" vehicle="bus_43:0.4" depart="2462.00" arrival="3672.00" arrivalPos="21.46" duration="1210.00" routeLength="4568.44" timeLoss="92.78"/>
    </personinfo>
    <personinfo id="1849631269.43.1835" depart="1835.00" type="DEFAULT_PEDTYPE">
        <walk depart="1835.00" departPos="160.44" arrival="1964.00" arrivalPos="0.00" duration="129.00" routeLength="160.44" timeLoss="13.48" maxSpeed="1.39"/>
        <ride waitingTime="50.00" vehicle="bus_43:0.2" depart="2014.00" arrival="3737.00" arrivalPos="33.15" duration="1723.00" routeLength="5493.87" timeLoss="123.08"/>
    </personinfo>
    <personinfo id="410462291.43.2452" depart="2452.00" type="DEFAULT_PEDTYPE">
        <walk depart="2452.00" departPos="415.85" arrival="2784.00" arrivalPos="0.00" duration="332.00" routeLength="415.85" timeLoss="32.59" maxSpeed="1.39"/>
        <ride waitingTime="566.00" vehicle="bus_43:0.3" depart="3350.00" arrival="3779.00" arrivalPos="29.61" duration="429.00" routeLength="1596.28" timeLoss="38.68"/>
    </personinfo>
    <personinfo id="410486969.43.2327" depart="2327.00" type="DEFAULT_PEDTYPE">
        <walk depart="2327.00" departPos="0.12" arrival="2328.00" arrivalPos="1.12" duration="1.00" routeLength="1.00" timeLoss="0.28" maxSpeed="1.39"/>
        <ride waitingTime="535.00" vehicle="bus_43:0.0" depart="2863.00" arrival="3829.00" arrivalPos="176.36" duration="966.00" routeLength="2193.01" timeLoss="63.18"/>
    </personinfo>
    <personinfo id="410482564.22.1464" depart="1464.00" type="DEFAULT_PEDTYPE">
        <walk depart="1464.00" departPos="87.68" arrival="1465.00" arrivalPos="88.68" duration="1.00" routeLength="1.00" timeLoss="0.28" maxSpeed="1.39"/>
        <ride waitingTime="571.00" vehicle="bus_22:0.0" depart="2036.00" arrival="3859.00" arrivalPos="267.83" duration="1823.00" routeLength="6118.10" timeLoss="132.83"/>
    </personinfo>
    <personinfo id="410465917.22.2758" depart="2758.00" type="DEFAULT_PEDTYPE">
        <walk depart="2758.00" departPos="21.70" arrival="2759.00" arrivalPos="22.70" duration="1.00" routeLength="1.00" timeLoss="0.28" maxSpeed="1.39"/>
        <ride waitingTime="279.00" vehicle="bus_22:0.0" depart="3038.00" arrival="3859.00" arrivalPos="267.83" duration="821.00" routeLength="2335.63" timeLoss="57.37"/>
    </personinfo>
    <personinfo id="410465917.22.2863" depart="2863.00" type="DEFAULT_PEDTYPE">
        <walk depart="2863.00" departPos="21.70" arrival="2864.00" arrivalPos="22.70" duration="1.00" routeLength="1.00" timeLoss="0.28" maxSpeed="1.39"/>
        <ride waitingTime="174.00" vehicle="bus_22:0.0" depart="3038.00" arrival="3859.00" arrivalPos="267.83" duration="821.00" routeLength="2335.63" timeLoss="57.37"/>
    </personinfo>
    <personinfo id="410465915.22.1528" depart="1528.00" type="DEFAULT_PEDTYPE">
        <walk depart="1528.00" departPos="138.08" arrival="1640.00" arrivalPos="0.00" duration="112.00" routeLength="138.08" timeLoss="12.58" maxSpeed="1.39"/>
        <ride waitingTime="1620.00" vehicle="bus_22:0.0" depart="3260.00" arrival="3860.00" arrivalPos="267.83" duration="600.00" routeLength="1856.54" timeLoss="46.22"/>
    </personinfo>
    <personinfo id="410465915.22.2393" depart="2393.00" type="DEFAULT_PEDTYPE">
        <walk depart="2393.00" departPos="138.08" arrival="2505.00" arrivalPos="0.00" duration="112.00" routeLength="138.08" timeLoss="12.58" maxSpeed="1.39"/>
        <ride waitingTime="755.00" vehicle="bus_22:0.0" depart="3260.00" arrival="3860.00" arrivalPos="267.83" duration="600.00" routeLength="1856.54" timeLoss="46.22"/>
    </personinfo>
    <personinfo id="410465915.22.3046" depart="3046.00" type="DEFAULT_PEDTYPE">
        <walk depart="3046.00" departPos="138.08" arrival="3158.00" arrivalPos="0.00" duration="112.00" routeLength="138.08" timeLoss="12.58" maxSpeed="1.39"/>
        <ride waitingTime="102.00" vehicle="bus_22:0.0" depart="3260.00" arrival="3861.00" arrivalPos="267.83" duration="601.00" routeLength="1856.54" timeLoss="46.22"/>
    </personinfo>
    <personinfo id="410462762.22.1567" depart="1567.00" type="DEFAULT_PEDTYPE">
        <walk depart="1567.00" departPos="652.84" arrival="2089.00" arrivalPos="0.00" duration="522.00" routeLength="652.84" timeLoss="51.96" maxSpeed="1.39"/>
        <ride waitingTime="1300.00" vehicle="bus_22:0.0" depart="3389.00" arrival="3861.00" arrivalPos="267.83" duration="472.00" routeLength="1398.88" timeLoss="33.84"/>
    </personinfo>
    <personinfo id="410462762.22.1754" depart="1754.00" type="DEFAULT_PEDTYPE">
        <walk depart="1754.00" departPos="652.84" arrival="2277.00" arrivalPos="0.00" duration="523.00" routeLength="652.84" timeLoss="52.96" maxSpeed="1.39"/>
        <ride waitingTime="1112.00" vehicle="bus_22:0.0" depart="3389.00" arrival="3862.00" arrivalPos="267.83" duration="473.00" routeLength="1398.88" timeLoss="33.84"/>
    </personinfo>
    <personinfo id="410466111.22.208" depart="208.00" type="DEFAULT_PEDTYPE">
        <walk depart="208.00" departPos="69.51" arrival="209.00" arrivalPos="70.51" duration="1.00" routeLength="1.00" timeLoss="0.28" maxSpeed="1.39"/>
        <ride waitingTime="3469.00" vehicle="bus_22:0.0" depart="3678.00" arrival="3862.00" arrivalPos="267.83" duration="184.00" routeLength="674.77" timeLoss="16.44"/>
    </personinfo>
    <personinfo id="410466111.22.784" depart="784.00" type="DEFAULT_PEDTYPE">
        <walk depart="784.00" departPos="69.51" arrival="785.00" arrivalPos="70.51" duration="1.00" routeLength="1.00" timeLoss="0.28" maxSpeed="1.39"/>
        <ride waitingTime="2893.00" vehicle="bus_22:0.0" depart="3678.00" arrival="3863.00" arrivalPos="267.83" duration="185.00" routeLength="674.77" timeLoss="16.44"/>
    </personinfo>
    <personinfo id="410466111.22.2868" depart="2868.00" type="DEFAULT_PEDTYPE">
        <walk depart="2868.00" departPos="69.51" arrival="2869.00" arrivalPos="70.51" duration="1.00" routeLength="1.00" timeLoss="0.28" maxSpeed="1.39"/>
        <ride waitingTime="809.00" vehicle="bus_22:0.0" depart="3678.00" arrival="3863.00" arrivalPos="267.83" duration="185.00" routeLength="674.77" timeLoss="16.44"/>
    </personinfo>
    <personinfo id="410466111.22.3265" depart="3265.00" type="DEFAULT_PEDTYPE">
        <walk depart="3265.00" departPos="69.51" arrival="3266.00" arrivalPos="70.51" duration="1.00" routeLength="1.00" timeLoss="0.28" maxSpeed="1.39"/>
        <ride waitingTime="412.00" vehicle="bus_22:0.0" depart="3678.00" arrival="3864.00" arrivalPos="267.83" duration="186.00" routeLength="674.73" timeLoss="16.44"/>
    </personinfo>
    <personinfo id="410466111.22.3555" depart="3555.00" type="DEFAULT_PEDTYPE">
        <walk depart="3555.00" departPos="69.51" arrival="3556.00" arrivalPos="70.51" duration="1.00" routeLength="1.00" timeLoss="0.28" maxSpeed="1.39"/>
        <ride waitingTime="122.00" vehicle="bus_22:0.0" depart="3678.00" arrival="3864.00" arrivalPos="267.83" duration="186.00" routeLength="674.73" timeLoss="16.44"/>
    </personinfo>
    <personinfo id="410460005.22.1626" depart="1626.00" type="DEFAULT_PEDTYPE">
        <walk depart="1626.00" departPos="286.81" arrival="1857.00" arrivalPos="0.00" duration="231.00" routeLength="286.81" timeLoss="24.50" maxSpeed="1.39"/>
        <ride waitingTime="545.00" vehicle="bus_22:0.4" depart="2402.00" arrival="3894.00" arrivalPos="176.35" duration="1492.00" routeLength="5051.71" timeLoss="255.89"/>
    </personinfo>
    <personinfo id="410462103.22.1481" depart="1481.00" type="DEFAULT_PEDTYPE">
        <walk depart="1481.00" departPos="51.46" arrival="1482.00" arrivalPos="52.46" duration="1.00" routeLength="1.00" timeLoss="0.28" maxSpeed="1.39"/>