<?xml version="1.0" encoding="UTF-8"?>

<!-- generated on 2024-01-28 19:49:57 by Eclipse SUMO sumo Version 1.14.1
<configuration xmlns:xsi="http://www.w3.org/2001/XMLSchema-instance" xsi:noNamespaceSchemaLocation="http://sumo.dlr.de/xsd/sumoConfiguration.xsd">

    <input>
        <net-file value=".\singapore.net.xml"/>
        <route-files value="trips.trips.xml"/>
        <additional-files value=".\busstops.xml"/>
    </input>

    <output>
        <vehroute-output value="vehroutes.xml"/>
        <stop-output value="stopinfos.xml"/>
    </output>

    <time>
        <begin value="0"/>
    </time>

    <processing>
        <ignore-route-errors value="true"/>
    </processing>

    <routing>
        <device.rerouting.adaptation-interval value="0"/>
    </routing>

    <report>
        <aggregate-warnings value="5"/>
        <error-log value="trips.trips.xml.errorlog"/>
        <no-step-log value="true"/>
    </report>

</configuration>
-->

<routes xmlns:xsi="http://www.w3.org/2001/XMLSchema-instance" xsi:noNamespaceSchemaLocation="http://sumo.dlr.de/xsd/routes_file.xsd">
    <vehicle id="0_bus_22:0" type="bus" depart="0.00" departLane="0" arrival="2424.00">
        <route edges="543768663 736482787 576773653 464288938 174041987#0 22719967 630171311 482256070 652293278 635112968 652558527 464008725 634469471 479764655 479764653 480275410 630160531 479124342 630163199 74902653 532977598 661628136 479754537 22325259 383365020 632203646 634184990 634794777 479079789 655137145 463995441 22293549 655137684 630854648 667699977 33264691#0 633809926 445716790 74671097 445716788#0 538260866 633299924 474929430 538761283#0 538761282 631844130 649405237 539638976 476753248#0 75516211 630855998 500368905 661665982 795505748 795505747 632497914 173961732 630419696#0 632512661 639549066 655655597 443122391 74553771 639916002 655658863 74746296 655144778 477574135 655504834 636737164 74746295 173779734 447712957 476429330 477958806 587048092 476431846 74675111 792764584 473439150 74553776 826116981 473440854 473440856 632474268 655146644#0 74687493 585646221#0 23816952 75511727 -645158440 -464288982 1167108141 245934570#2"/>
        <stop busStop="410460005" duration="30.00"/>
        <stop busStop="410459901" duration="30.00"/>
        <stop busStop="410459897" duration="30.00"/>
        <stop busStop="410459904" duration="30.00"/>
        <stop busStop="410459657" duration="30.00"/>
        <stop busStop="410459651" duration="30.00"/>
        <stop busStop="410467153" duration="30.00"/>
        <stop busStop="410462101" duration="30.00"/>
        <stop busStop="410462103" duration="30.00"/>
        <stop busStop="410475114" duration="30.00"/>
        <stop busStop="1531005322" duration="30.00"/>
        <stop busStop="410483103" duration="30.00"/>
        <stop busStop="410482520" duration="30.00"/>
        <stop busStop="410482572" duration="30.00"/>
        <stop busStop="410482568" duration="30.00"/>
        <stop busStop="410482491" duration="30.00"/>
        <stop busStop="410482562" duration="30.00"/>
        <stop busStop="410482564" duration="30.00"/>
        <stop busStop="410482570" duration="30.00"/>
        <stop busStop="410482551" duration="30.00"/>
        <stop busStop="410471081" duration="30.00"/>
        <stop busStop="410471030" duration="30.00"/>
        <stop busStop="410480716" duration="30.00"/>
        <stop busStop="410480722" duration="30.00"/>
        <stop busStop="410480721" duration="30.00"/>
        <stop busStop="5701793241" duration="30.00"/>
        <stop busStop="410480724" duration="30.00"/>
        <stop busStop="410464248" duration="30.00"/>
        <stop busStop="410465916" duration="30.00"/>
        <stop busStop="410465917" duration="30.00"/>
        <stop busStop="410465915" duration="30.00"/>
        <stop busStop="410462762" duration="30.00"/>
        <stop busStop="410466111" duration="30.00"/>
        <stop busStop="410464251" duration="30.00"/>
    </vehicle>

    <vehicle id="1_bus_43:0" type="bus" depart="0.00" departLane="1" arrival="4218.00">
        <route edges="1111008091 724076802 476395133 708819911 445283029 74962088 734884726 476395130 476395125 582412262 476395118 655182285 445716721 717446182 823685682#0 582412290#0 190451325 620745573 717446180 391007732#0 32776560 349416402 476708352 476692300 74957629 717470516 717470515 476708349 476708350 445716748 718229612 476689637 476705431 718229611 445716694 627983391 627937587 22652564 623713563#0 479337786 623715810#0 624291892 624291891#0 581565350 537979489#0 623353012 383281870 22651486 528461110 632378379#0 479747060 630097526 445716682 445716683 476703993 476703994 628706178 512918178#0 75070576 512918179 794628388 651065194 512918192#0 512918201#0 652009599 628501871 445716686 74668469 631742210 475156716 475156717 448937650 533055054 1122289596 74869296 475157992 34905413 475158000 475158907 633197069 475159368 475159371 539671030 175959568 630829769 475163615 475163616 475163617 325024345 22325259 383365020 632203646 634184990 634794777 479079789 655137145 463995441 22293549 655137684 630854648 667699977 33264691#0 633809926 445716790 74671097 445716788#0 538260866 633299924 474929430 538761283#0 538761282 631844130 649405237 539638976 476753248#0 75516211 630855998 500368905 661665982 795505748 795505747 632497914 173961732 630419696#0 632512661 639549066 655655597 445282960 74484458 587050477#0 654859628 654859626 632569391 585706001 632561159 655143897 585646211#0 585646209#0 661670601 234371419 74553768 464289009 652012496 585703842#0 -22810638 746927170 474676253 478313239 536913687 -747299409 536913703 747065113 536913696 655653617 45065636 641071354 652572204 486025333 535665919 535665920 747882605 617923190 22698361 673494267 816753391 467731257#0 649368017 74685970#0 474427034 673460196 474427035 630414222 22698756 22698751#0 761157096 174023709 474428337 74518787 538754961 633826997 474210631 474428340 464288956 74527435 474431399 474446520 474446528 474446530 722315777 538417614 474446533 474446536 474446538 474471903 473393255 585984921 585984927 585984926 585984914 585984913 585984909 585984907 585984904 639626490 758858115 769243289 539497793 617971449 617971450 412280872 528461109"/>
        <stop busStop="1847853709" duration="30.00"/>
        <stop busStop="7314770844" duration="30.00"/>
        <stop busStop="3865151058" duration="30.00"/>
        <stop busStop="1849631331" duration="30.00"/>
        <stop busStop="3737148763" duration="30.00"/>
        <stop busStop="8926967788" duration="30.00"/>
        <stop busStop="410474760" duration="30.00"/>
        <stop busStop="410474348" duration="30.00"/>
        <stop busStop="1849631269" duration="30.00"/>
        <stop busStop="2429952037" duration="30.00"/>
        <stop busStop="1849631273" duration="30.00"/>
        <stop busStop="410462266" duration="30.00"/>
        <stop busStop="410462293" duration="30.00"/>
        <stop busStop="410462211" duration="30.00"/>
        <stop busStop="410462291" duration="30.00"/>
        <stop busStop="410486991" duration="30.00"/>
        <stop busStop="410486955" duration="30.00"/>
        <stop busStop="4430976208" duration="30.00"/>
        <stop busStop="410486969" duration="30.00"/>
        <stop busStop="1855320978" duration="30.00"/>
        <stop busStop="410486966" duration="30.00"/>
        <stop busStop="410486516" duration="30.00"/>
        <stop busStop="410486293" duration="30.00"/>
        <stop busStop="410475114" duration="30.00"/>
        <stop busStop="1531005322" duration="30.00"/>
        <stop busStop="410483103" duration="30.00"/>
        <stop busStop="410482520" duration="30.00"/>
        <stop busStop="410482572" duration="30.00"/>
        <stop busStop="410482568" duration="30.00"/>
        <stop busStop="410482491" duration="30.00"/>
        <stop busStop="410482562" duration="30.00"/>
        <stop busStop="410482564" duration="30.00"/>
        <stop busStop="410482570" duration="30.00"/>
        <stop busStop="410482551" duration="30.00"/>
        <stop busStop="410471081" duration="30.00"/>
        <stop busStop="410471030" duration="30.00"/>
        <stop busStop="410470959" duration="30.00"/>
        <stop busStop="410471005" duration="30.00"/>
        <stop busStop="410464255" duration="30.00"/>
        <stop busStop="410478275" duration="30.00"/>
        <stop busStop="-410478274" duration="30.00"/>
        <stop busStop="-410478273" duration="30.00"/>
        <stop busStop="-1849457018" duration="30.00"/>
        <stop busStop="410478271" duration="30.00"/>
        <stop busStop="410459494" duration="30.00"/>
        <stop busStop="4623289717" duration="30.00"/>
        <stop busStop="410467553" duration="30.00"/>
        <stop busStop="410467566" duration="30.00"/>
        <stop busStop="410467564" duration="30.00"/>
        <stop busStop="1268343846" duration="30.00"/>
        <stop busStop="410467574" duration="30.00"/>
        <stop busStop="410467562" duration="30.00"/>
        <stop busStop="410467567" duration="30.00"/>
        <stop busStop="410467571" duration="30.00"/>
        <stop busStop="410461658" duration="30.00"/>
        <stop busStop="410481810" duration="30.00"/>
        <stop busStop="410481815" duration="30.00"/>
        <stop busStop="410481781" duration="30.00"/>
        <stop busStop="410481783" duration="30.00"/>
        <stop busStop="410482047" duration="30.00"/>
        <stop busStop="410482019" duration="30.00"/>
        <stop busStop="1847713996" duration="30.00"/>
    </vehicle>

</routes>
